Name,SMILES,Molar Mass,CAS Number,Experimental Solubility in Water (mg/L),Temperature (deg C),Experiment Reference,,comment,Standard InChIKey
,[H][C@@]12O[C@H](CSCCN)[C@@]([H])(O[C@@]3([H])O[C@H](CSCCN)[C@@]([H])(O[C@@]4([H])O[C@H](CSCCN)[C@@]([H])(O[C@@]5([H])O[C@H](CSCCCN)[C@@]([H])(O[C@@]6([H])O[C@H](CSCCCN)[C@@]([H])(O[C@@]7([H])O[C@H](CSCCN)[C@@]([H])(O[C@@]8([H])O[C@H](CSCCN)[C@@]([H])(O[C@@]9([H])O[C@H](CSCCN)[C@@]([H])(O1)[C@H](O)[C@H]9O)[C@H](O)[C@H]8O)[C@H](O)[C@H]7O)[C@H](O)[C@H]6O)[C@H](O)[C@H]5O)[C@H](O)[C@H]4O)[C@H](O)[C@H]3O)[C@H](O)[C@H]2O,1798.27,,210000,25,"Article; Wang, Hai Ming; Wenz, Gerhard; Chemistry - An Asian Journal; vol. 6; 9; (2011); p. 2390 - 2399;",water,Solubility: 21 g/100g solvent,PEROPTVKSHUPNW-WTPNWPJYSA-N
,[H][C@@]12O[C@H](CSCCOCCOC)[C@@]([H])(O[C@@]3([H])O[C@H](CSCCOCCOCC)[C@@]([H])(O[C@@]4([H])O[C@H](CSCCOCCOCCOC)[C@@]([H])(O[C@@]5([H])O[C@H](CSCOCCOCCOC)[C@@]([H])(O[C@@]6([H])O[C@H](CSCCOCCOCCOC)[C@@]([H])(O[C@@]7([H])O[C@H](CSCCOCCOCCOC)[C@@]([H])(O[C@@]8([H])O[C@H](CSCCOCCOCCOC)[C@@]([H])(O[C@@]9([H])O[C@H](CSCCOCCOCCOC)[C@@]([H])(O1)[C@H](O)[C@H]9O)[C@H](O)[C@H]8O)[C@H](O)[C@H]7O)[C@H](O)[C@H]6O)[C@H](O)[C@H]5O)[C@H](O)[C@H]4O)[C@H](O)[C@H]3O)[C@H](O)[C@H]2O,2507.06,,480000,25,"Article; Wang, Hai Ming; Wenz, Gerhard; Chemistry - An Asian Journal; vol. 6; 9; (2011); p. 2390 - 2399;",water,Solubility: 48 g/100g solvent,CJTSPSBORLSBNE-FGGFUJSMSA-N
"indoline-2,3-dione; isatin",OC1=C2C=CC=CC2=NC1=O,147.133,,0.08,24.99,"Article; Shakeel, Faiyaz; Haq, Nazrul; Salem-Bekhit, Mounir M.; Journal of Molecular Liquids; vol. 207; (2015); p. 274 - 278;",water,Solubility: 5.13E-05 molpercent,JXDYKVIHCLTXOP-UHFFFAOYSA-N
pyridine-3-aldehyde pyridin-2'-ylhydrazone,N(N=CC1=CC=CN=C1)C1=NC=CC=C1,198.227,63697-67-6,138.76,24.84,"Article; Perlovich, German L.; Kazachenko, Vladimir P.; Strakhova, Nadezda N.; Schaper, Klaus-J.; Raevsky, Oleg A.; Journal of Chemical and Engineering Data; vol. 58; 9; (2013); p. 2659 - 2667;",water,Solubility: 0.0007 mol/1000g,ZMTRKIYGCKYPTF-UHFFFAOYSA-N
2-acetylpyridine O-(6'-chloropyrimidin-4'-yl)oxime,CC(=NOC1=CC(Cl)=NC=N1)C1=NC=CC=C1,248.672,907967-95-7,155.42,24.84,"Article; Perlovich, German L.; Kazachenko, Vladimir P.; Strakhova, Nadezda N.; Schaper, Klaus-J.; Raevsky, Oleg A.; Journal of Chemical and Engineering Data; vol. 58; 9; (2013); p. 2659 - 2667;",water,Solubility: 0.000625 mol/1000g,CYIDKMRQCBBIDR-UHFFFAOYSA-N
[1-(2-pyridinyl)ethylidene]hydrazone-(2(1H)-quinolinone),CC(=NN=C1NC2=C(C=CC=C2)C=C1)C1=NC=CC=C1,262.314,70845-34-0,7.97,24.84,"Article; Perlovich, German L.; Kazachenko, Vladimir P.; Strakhova, Nadezda N.; Schaper, Klaus-J.; Raevsky, Oleg A.; Journal of Chemical and Engineering Data; vol. 58; 9; (2013); p. 2659 - 2667;",water,Solubility: 3.04E-05 mol/1000g,ZHXBMYNQHKXYCJ-UHFFFAOYSA-N
[1-(2-pyridinyl)ethylidene]hydrazone-(4(1H)-quinazolinone),CC(=NN=C1N=CNC2=CC=CC=C12)C1=NC=CC=C1,263.302,120356-41-4,61.61,24.84,"Article; Perlovich, German L.; Kazachenko, Vladimir P.; Strakhova, Nadezda N.; Schaper, Klaus-J.; Raevsky, Oleg A.; Journal of Chemical and Engineering Data; vol. 58; 9; (2013); p. 2659 - 2667;",water,Solubility: 0.000234 mol/1000g,GRDMGYDEJSDGIQ-UHFFFAOYSA-N
5-benzyloxypyridine-2-aldehyde 2'-pyridinylhydrazone,C(OC1=CN=C(C=NNC2=CC=CC=N2)C=C1)C1=CC=CC=C1,304.351,1290504-01-6,3.56,24.84,"Article; Perlovich, German L.; Kazachenko, Vladimir P.; Strakhova, Nadezda N.; Schaper, Klaus-J.; Raevsky, Oleg A.; Journal of Chemical and Engineering Data; vol. 58; 9; (2013); p. 2659 - 2667;",water,Solubility: 1.17E-05 mol/1000g,JJTLQCNYVISQEN-UHFFFAOYSA-N
(phenyl-2-pyridinylmethylene)hydrazone-(2(1H)-quinolinone),N1C(C=CC2=C1C=CC=C2)=NN=C(C1=CC=CC=C1)C1=NC=CC=C1,324.385,35896-24-3,18.88,24.84,"Article; Perlovich, German L.; Kazachenko, Vladimir P.; Strakhova, Nadezda N.; Schaper, Klaus-J.; Raevsky, Oleg A.; Journal of Chemical and Engineering Data; vol. 58; 9; (2013); p. 2659 - 2667;",water,Solubility: 5.82E-05 mol/1000g,OMPFOEQSNRLYEL-UHFFFAOYSA-N
tenoxicam; TNX,CN1S(=O)(=O)C2C=CSC2C(=O)\C1=C(\O)NC1=NC=CC=C1,339.396,,0.04,24.99,"Article; Shakeel, Faiyaz; Haq, Nazrul; Alanazi, Fars K.; Alsarra, Ibrahim A.; Journal of Molecular Liquids; vol. 213; (2016); p. 221 - 227;",water,Solubility: 4.13E-06 g/100g solvent,FECZQJMPBNISTE-RAXLEYEMSA-N
5-(phenylmethoxy)-2-pyridinecarboxaldehyde 1-phthalazinylhydrazone,C(OC1=CC=C(C=NNC2=C3C=CC=CC3=CN=N2)N=C1)C1=CC=CC=C1,355.399,120356-23-2,3.91,24.84,"Article; Perlovich, German L.; Kazachenko, Vladimir P.; Strakhova, Nadezda N.; Schaper, Klaus-J.; Raevsky, Oleg A.; Journal of Chemical and Engineering Data; vol. 58; 9; (2013); p. 2659 - 2667;",water,Solubility: 1.1E-05 mol/1000g,SQZBJSNYWIOOAD-UHFFFAOYSA-N
2-hydroxycyclopentyl acrylate,OC1CCCC1OC(=O)C=C,156.181,,85000,20,"Patent; MitsubishiRayonCo., Ltd.; Kamon, Ryo; Murata, Naoshi; Watanabe, Ken; Serizawa, Masafumi; (44 pag.)JP2015/117238; (2015); A;",water,Solubility: 8.5 weight percent,QEMKMGVYNKJIOF-UHFFFAOYSA-N
,CC(N(CC#N)CC#N)C(O)=O,167.167,,407000,20,"Patent; AKZO NOBEL CHEMICALS INTERNATIONAL B.V.; BOUWMAN, Albertus Jacobus Maria; JONGEN, Hubertus Johannes; DOPPEN, Roy Gerard; HEUS, Martin; SCHOMAKER, Elwin; (29 pag.)WO2016/102494; (2016); A1;",water,Solubility: 40.7 weight percent,AVDSNUDKECFGRQ-UHFFFAOYSA-N
2-hydroxycyclopentyl methacrylate,CC(=C)C(=O)OC1CCCC1O,170.208,,77000,20,"Patent; MitsubishiRayonCo., Ltd.; Kamon, Ryo; Murata, Naoshi; Watanabe, Ken; Serizawa, Masafumi; (44 pag.)JP2015/117238; (2015); A;",water,Solubility: 7.7 weight percent,PEDGJUMANYVQBU-UHFFFAOYSA-N
3-sulfolanyl propionate,CCC(=O)OC1CCS(=O)(=O)C1,192.236,,37000,25,"Patent; Sumitomo Seika Chemicals Co., Ltd.; Fukuda, Noriaki; DaisenToshiharu, Toshiharu; Goto, Kentaro; Hachiken, Satoshi; (10 pag.)JP5674390; (2015); B2;",water,Solubility: 3.7 g/100g solvent,AKDMEMZLNOHXLE-UHFFFAOYSA-N
3-sulfolanyl isobutyrate,CC(C)C(=O)OC1CCS(=O)(=O)C1,206.263,,44000,25,"Patent; Sumitomo Seika Chemicals Co., Ltd.; Fukuda, Noriaki; DaisenToshiharu, Toshiharu; Goto, Kentaro; Hachiken, Satoshi; (10 pag.)JP5674390; (2015); B2;",water,Solubility: 4.4 g/100g solvent,MTUJEIIRSLDZOD-UHFFFAOYSA-N
2-[(2'-hydroxy)cyclopentyloxy]cyclopentyl acrylate,OC1CCCC1OC1CCCC1OC(=O)C=C,240.299,,32000,20,"Patent; MitsubishiRayonCo., Ltd.; Kamon, Ryo; Murata, Naoshi; Watanabe, Ken; Serizawa, Masafumi; (44 pag.)JP2015/117238; (2015); A;",water,Solubility: 3.2 weight percent,PSMGZMYNRNYMPG-UHFFFAOYSA-N
2-[(2'-hydroxy)cyclopentyloxy]cyclopentyl methacrylate,CC(=C)C(=O)OC1CCCC1OC1CCCC1O,254.326,,24000,20,"Patent; MitsubishiRayonCo., Ltd.; Kamon, Ryo; Murata, Naoshi; Watanabe, Ken; Serizawa, Masafumi; (44 pag.)JP2015/117238; (2015); A;",water,Solubility: 2.4 weight percent,KBVHOFBGRXBPNB-UHFFFAOYSA-N
2-[(2'-hydroxy)cyclohexyloxy]cyclohexyl acrylate,OC1CCCCC1OC1CCCCC1OC(=O)C=C,268.353,,27000,20,"Patent; MitsubishiRayonCo., Ltd.; Kamon, Ryo; Murata, Naoshi; Watanabe, Ken; Serizawa, Masafumi; (44 pag.)JP2015/117238; (2015); A;",water,Solubility: 2.7 weight percent,WVFHZXHAFAWOIB-UHFFFAOYSA-N
N-(L-valyl)-beta-D-glucopyranosylamine; Val-Glc,CC(C)[C@H](N)C(=O)N[C@@H]1O[C@H](CO)[C@@H](O)[C@H](O)[C@H]1O,278.305,,335000,25,"Patent; AJINOMOTO CO., INC.; KUROSAWA, Wataru; UBAGAI, Risa; KATO, Hiroyuki; SUZUKI, Hiromi; (26 pag.)US2017/7709; (2017); A1;",water,Solubility: 33.5 g/100g solvent,YIQUWJZWZUWHDY-JFENDCDASA-N
2-[(2'-hydroxy)cyclohexyloxy]cyclohexyl methacrylate,CC(=C)C(=O)OC1CCCCC1OC1CCCCC1O,282.38,,21000,20,"Patent; MitsubishiRayonCo., Ltd.; Kamon, Ryo; Murata, Naoshi; Watanabe, Ken; Serizawa, Masafumi; (44 pag.)JP2015/117238; (2015); A;",water,Solubility: 2.1 weight percent,LAYVWGPJRMGZSV-UHFFFAOYSA-N
N-(L-leucyl)-beta-D-glucopyranosylamine; Leu-Glc,CC(C)C[C@H](N)C(=O)N[C@@H]1O[C@H](CO)[C@@H](O)[C@H](O)[C@H]1O,292.332,,63000,25,"Patent; AJINOMOTO CO., INC.; KUROSAWA, Wataru; UBAGAI, Risa; KATO, Hiroyuki; SUZUKI, Hiromi; (26 pag.)US2017/7709; (2017); A1;",water,Solubility: 63 g/100g solvent,OOQMBUICNVORTH-VCXOXUAUSA-N
N-(L-isoleucyl)-beta-D-glucopyranosylamine; Ile-Glc,CC[C@H](C)[C@H](N)C(=O)N[C@@H]1O[C@H](CO)[C@@H](O)[C@H](O)[C@H]1O,292.332,,168000,25,"Patent; AJINOMOTO CO., INC.; KUROSAWA, Wataru; UBAGAI, Risa; KATO, Hiroyuki; SUZUKI, Hiromi; (26 pag.)US2017/7709; (2017); A1;",water,Solubility: 32.8 g/100g solvent,FVSPOJLDSXXBNG-BFRHEXBSSA-N
N-(L-tyrosyl)-beta-D-glucopyranosylamine; Tyr-Glc,N[C@@H](CC1=CC=C(O)C=C1)C(=O)N[C@@H]1O[C@H](CO)[C@@H](O)[C@H](O)[C@H]1O,342.349,,3920000,25,"Patent; AJINOMOTO CO., INC.; KUROSAWA, Wataru; UBAGAI, Risa; KATO, Hiroyuki; SUZUKI, Hiromi; (26 pag.)US2017/7709; (2017); A1;",water,Solubility: 16.8 g/100g solvent,CCODESGDXKDLIJ-MYMCGMNMSA-N
"N-(3,4-dihydroxy-L-phenylalanyl)-beta-D-glucopyranosylamine; DOPA-Glc",N[C@@H](CC1=CC(O)=C(O)C=C1)C(=O)N[C@@H]1O[C@H](CO)[C@@H](O)[C@H](O)[C@H]1O,358.348,,10,25,"Patent; AJINOMOTO CO., INC.; KUROSAWA, Wataru; UBAGAI, Risa; KATO, Hiroyuki; SUZUKI, Hiromi; (26 pag.)US2017/7709; (2017); A1;",water,Solubility: > 392 g/100g solvent,JXXYPUCIUMTSKK-OLCQZNMOSA-N
"3,9-di-alpha-methylbenzyl-2,4,8,10-tetraoxa-3,9-diphosphaspiro[5.5]undecane-3,9-dioxide",CC(C1=CC=CC=C1)P1(=O)OCC2(CO1)COP(=O)(OC2)C(C)C1=CC=CC=C1,436.381,,10,20,"Patent; TEIJIN LIMITED; YAMANAKA, KATSUHIRO; TAKEDA, TSUYOSHI; IMAZATO, KENTA; (23 pag.)JP2016/216382; (2016); A;",water,Solubility: 0.001 g/100g,DQDPMPURZIOBCF-UHFFFAOYSA-N
"3,9-diphenylethyl-2,4,8,10-tetraoxa-3,9-diphosphaspiro[5.5]undecane-3,9-dioxide",O=P1(CCC2=CC=CC=C2)OCC2(CO1)COP(=O)(CCC1=CC=CC=C1)OC2,436.381,,14000,20,"Patent; TEIJIN LIMITED; YAMANAKA, KATSUHIRO; TAKEDA, TSUYOSHI; IMAZATO, KENTA; (23 pag.)JP2016/216382; (2016); A;",water,Solubility: 0.001 g/100g,FPQRDXPBQRCUMO-UHFFFAOYSA-N
,CCCC(CCC)C(=O)OC(CCCN1CCC(O)(CC1)C1=CC=C(Cl)C=C1)C1=CC=C(F)C=C1,504.085,,10,25,"Article; Olivieri, Melania; Amata, Emanuele; Vinciguerra, Shila; Fiorito, Jole; Giurdanella, Giovanni; Drago, Filippo; Caporarello, Nunzia; Prezzavento, Orazio; Arena, Emanuela; Salerno, Loredana; Rescifina, Antonio; Lupo, Gabriella; Anfuso, Carmelina Daniela; Marrazzo, Agostino; Journal of Medicinal Chemistry; vol. 59; 21; (2016); p. 9960 - 9966;",water,Solubility: 1.4 g/100g solvent,ZMMTZQWVQFDIBG-UHFFFAOYSA-N
"3,9-bis(diphenylmethyl)-2,4,8,10-tetraoxa-3,9-diphosphaspiro[5.5]undecane-3,9-dioxide",O=P1(OCC2(CO1)COP(=O)(OC2)C(C1=CC=CC=C1)C1=CC=CC=C1)C(C1=CC=CC=C1)C1=CC=CC=C1,560.523,,200000,20,"Patent; TEIJIN LIMITED; YAMANAKA, KATSUHIRO; TAKEDA, TSUYOSHI; IMAZATO, KENTA; (23 pag.)JP2016/216382; (2016); A;",water,Solubility: 0.001 g/100g,MAPVOTNHEVPSHO-UHFFFAOYSA-N
,[H][C@]12C[C@]([H])([C@@H](COCCCCCCCCC)[C@H]1COCCCCCCCCC)[C@@H](O[C@@H]1O[C@H](CO)[C@@H](O[C@H]3O[C@H](CO)[C@@H](O)[C@H](O)[C@H]3O)[C@H](O)[C@H]1O)[C@H]2O[C@@H]1O[C@H](CO)[C@@H](O[C@H]2O[C@H](CO)[C@@H](O)[C@H](O)[C@H]2O)[C@H](O)[C@H]1O,1089.28,,200000,25,"Article; Das, Manabendra; Du, Yang; Ribeiro, Orquidea; Hariharan, Parameswaran; Mortensen, Jonas S.; Patra, Dhabaleswar; Skiniotis, Georgios; Loland, Claus J.; Guan, Lan; Kobilka, Brian K.; Byrne, Bernadette; Chae, Pil Seok; Journal of the American Chemical Society; vol. 139; 8; (2017); p. 3072 - 3081;",water,Solubility: Ca. 20 weight percent,ANZGDVODRAIRRV-FZLASXDXSA-N
,[H][C@]12C[C@]([H])([C@H](COCCCCCCCCC)[C@@H]1COCCCCCCCCC)[C@@H](O[C@@H]1O[C@H](CO)[C@@H](O[C@H]3O[C@H](CO)[C@@H](O)[C@H](O)[C@H]3O)[C@H](O)[C@H]1O)[C@H]2O[C@@H]1O[C@H](CO)[C@@H](O[C@H]2O[C@H](CO)[C@@H](O)[C@H](O)[C@H]2O)[C@H](O)[C@H]1O,1089.28,,100000,25,"Article; Das, Manabendra; Du, Yang; Ribeiro, Orquidea; Hariharan, Parameswaran; Mortensen, Jonas S.; Patra, Dhabaleswar; Skiniotis, Georgios; Loland, Claus J.; Guan, Lan; Kobilka, Brian K.; Byrne, Bernadette; Chae, Pil Seok; Journal of the American Chemical Society; vol. 139; 8; (2017); p. 3072 - 3081;",water,Solubility: Ca. 20 weight percent,ANZGDVODRAIRRV-JMEGQMNLSA-N
,[H][C@]12C[C@]([H])([C@@H](COCCCCCCCCCC)[C@H]1COCCCCCCCCCC)[C@@H](O[C@@H]1O[C@H](CO)[C@@H](O[C@H]3O[C@H](CO)[C@@H](O)[C@H](O)[C@H]3O)[C@H](O)[C@H]1O)[C@H]2O[C@@H]1O[C@H](CO)[C@@H](O[C@H]2O[C@H](CO)[C@@H](O)[C@H](O)[C@H]2O)[C@H](O)[C@H]1O,1117.33,,100000,25,"Article; Das, Manabendra; Du, Yang; Ribeiro, Orquidea; Hariharan, Parameswaran; Mortensen, Jonas S.; Patra, Dhabaleswar; Skiniotis, Georgios; Loland, Claus J.; Guan, Lan; Kobilka, Brian K.; Byrne, Bernadette; Chae, Pil Seok; Journal of the American Chemical Society; vol. 139; 8; (2017); p. 3072 - 3081;",water,Solubility: Ca. 10 weight percent,KUXOTQQTDAJFCP-BGIGSMFGSA-N
,[H][C@]12C[C@]([H])([C@H](COCCCCCCCCCC)[C@@H]1COCCCCCCCCCC)[C@@H](O[C@@H]1O[C@H](CO)[C@@H](O[C@H]3O[C@H](CO)[C@@H](O)[C@H](O)[C@H]3O)[C@H](O)[C@H]1O)[C@H]2O[C@@H]1O[C@H](CO)[C@@H](O[C@H]2O[C@H](CO)[C@@H](O)[C@H](O)[C@H]2O)[C@H](O)[C@H]1O,1117.33,,800,25,"Article; Das, Manabendra; Du, Yang; Ribeiro, Orquidea; Hariharan, Parameswaran; Mortensen, Jonas S.; Patra, Dhabaleswar; Skiniotis, Georgios; Loland, Claus J.; Guan, Lan; Kobilka, Brian K.; Byrne, Bernadette; Chae, Pil Seok; Journal of the American Chemical Society; vol. 139; 8; (2017); p. 3072 - 3081;",water,Solubility: Ca. 10 weight percent,KUXOTQQTDAJFCP-SCCPODQDSA-N
rebaudioside D,[H][C@@]12CC[C@@]3(C[C@@]1(CC3=C)CC[C@]1([H])[C@@](C)(CCC[C@@]21C)C(=O)O[C@@H]1O[C@H](CO)[C@@H](O)[C@H](O)[C@H]1O[C@@H]1O[C@H](CO)[C@@H](O)[C@H](O)[C@H]1O)O[C@@H]1O[C@H](CO)[C@@H](O)[C@H](O[C@@H]2O[C@H](CO)[C@@H](O)[C@H](O)[C@H]2O)[C@H]1O[C@@H]1O[C@H](CO)[C@@H](O)[C@H](O)[C@H]1O,1129.17,,50000,25,"Patent; CARGILL, INCORPORATED; CARLSON, Ting Liu; GASPARD, Dan; (82 pag.)WO2016/100689; (2016); A1;",water,Solubility: 0.08 weight percent,RPYRMTHVSUWHSV-BDXRQVTPSA-N
,[H][C@]12C[C@]([H])([C@@H](COCCCCCCCCCCC)[C@H]1COCCCCCCCCCCC)[C@@H](O[C@@H]1O[C@H](CO)[C@@H](O[C@H]3O[C@H](CO)[C@@H](O)[C@H](O)[C@H]3O)[C@H](O)[C@H]1O)[C@H]2O[C@@H]1O[C@H](CO)[C@@H](O[C@H]2O[C@H](CO)[C@@H](O)[C@H](O)[C@H]2O)[C@H](O)[C@H]1O,1145.38,,50000,25,"Article; Das, Manabendra; Du, Yang; Ribeiro, Orquidea; Hariharan, Parameswaran; Mortensen, Jonas S.; Patra, Dhabaleswar; Skiniotis, Georgios; Loland, Claus J.; Guan, Lan; Kobilka, Brian K.; Byrne, Bernadette; Chae, Pil Seok; Journal of the American Chemical Society; vol. 139; 8; (2017); p. 3072 - 3081;",water,Solubility: Ca. 5 weight percent,SALJHEVAUGQVPL-AINIGVPQSA-N
,[H][C@]12C[C@]([H])([C@H](COCCCCCCCCCCC)[C@@H]1COCCCCCCCCCCC)[C@@H](O[C@@H]1O[C@H](CO)[C@@H](O[C@H]3O[C@H](CO)[C@@H](O)[C@H](O)[C@H]3O)[C@H](O)[C@H]1O)[C@H]2O[C@@H]1O[C@H](CO)[C@@H](O[C@H]2O[C@H](CO)[C@@H](O)[C@H](O)[C@H]2O)[C@H](O)[C@H]1O,1145.38,,50000,25,"Article; Das, Manabendra; Du, Yang; Ribeiro, Orquidea; Hariharan, Parameswaran; Mortensen, Jonas S.; Patra, Dhabaleswar; Skiniotis, Georgios; Loland, Claus J.; Guan, Lan; Kobilka, Brian K.; Byrne, Bernadette; Chae, Pil Seok; Journal of the American Chemical Society; vol. 139; 8; (2017); p. 3072 - 3081;",water,Solubility: Ca. 5 weight percent,SALJHEVAUGQVPL-FQARHJSRSA-N
mono(6-rhein-amino-6-deoxy)-beta-cyclodextrin; rhein-1N-beta-cyclodextrin; rhein-1N-beta-CD,OC[C@H]1O[C@@H]2O[C@@H]3[C@@H](CO)O[C@H](O[C@@H]4[C@@H](CO)O[C@H](O[C@@H]5[C@@H](CNC(=O)C6=CC(O)=C7C(=O)C8=C(C=CC=C8O)C(=O)C7=C6)O[C@H](O[C@@H]6[C@@H](CO)O[C@H](O[C@@H]7[C@@H](CO)O[C@H](O[C@@H]8[C@@H](CO)O[C@H](O[C@H]1[C@H](O)[C@H]2O)[C@H](O)[C@H]8O)[C@H](O)[C@H]7O)[C@H](O)[C@H]6O)[C@H](O)[C@H]5O)[C@H](O)[C@H]4O)[C@H](O)[C@H]3O,1400.22,,9100,25,"Article; Liu, Manshuo; Lv, Pin; Liao, Rongqiang; Zhao, Yulin; Yang, Bo; Journal of Molecular Structure; vol. 1128; (2017); p. 239 - 244;",water,Solubility: 0.91 g/100g solvent,CDVLXUDQLCWADW-GPALVHAMSA-N
mono(6-rhein-ethylenedi-amino-6-deoxy)-beta-cyclodextrin; rhein-2N-beta-cyclodextrin; rhein-2N-beta-CD,OC[C@H]1O[C@@H]2O[C@@H]3[C@@H](CO)O[C@H](O[C@@H]4[C@@H](CO)O[C@H](O[C@@H]5[C@@H](CO)O[C@H](O[C@@H]6[C@@H](CNCCNC(=O)C7=CC8=C(C(=O)C9=C(C=CC=C9O)C8=O)C(O)=C7)O[C@H](O[C@@H]7[C@@H](CO)O[C@H](O[C@@H]8[C@@H](CO)O[C@H](O[C@H]1[C@H](O)[C@H]2O)[C@H](O)[C@H]8O)[C@H](O)[C@H]7O)[C@H](O)[C@H]6O)[C@H](O)[C@H]5O)[C@H](O)[C@H]4O)[C@H](O)[C@H]3O,1443.29,,10200,25,"Article; Liu, Manshuo; Lv, Pin; Liao, Rongqiang; Zhao, Yulin; Yang, Bo; Journal of Molecular Structure; vol. 1128; (2017); p. 239 - 244;",water,Solubility: 1.02 g/100g solvent,BQAOIKQKMXGBDA-JWZUYMPRSA-N
mono(6-rhein-diethylenetriamino-amino-6-deoxy)-beta-cyclodextrin; rhein-3N-beta-cyclodextrin; rhein-3N-beta-CD,OC[C@H]1O[C@@H]2O[C@@H]3[C@@H](CO)O[C@H](O[C@@H]4[C@@H](CO)O[C@H](O[C@@H]5[C@@H](CO)O[C@H](O[C@@H]6[C@@H](CNCCNCCNC(=O)C7=CC8=C(C(=O)C9=C(C=CC=C9O)C8=O)C(O)=C7)O[C@H](O[C@@H]7[C@@H](CO)O[C@H](O[C@@H]8[C@@H](CO)O[C@H](O[C@H]1[C@H](O)[C@H]2O)[C@H](O)[C@H]8O)[C@H](O)[C@H]7O)[C@H](O)[C@H]6O)[C@H](O)[C@H]5O)[C@H](O)[C@H]4O)[C@H](O)[C@H]3O,1486.36,,11200,25,"Article; Liu, Manshuo; Lv, Pin; Liao, Rongqiang; Zhao, Yulin; Yang, Bo; Journal of Molecular Structure; vol. 1128; (2017); p. 239 - 244;",water,Solubility: 1.12 g/100g solvent,QLFRBZORFQLOTQ-LRVWMMLWSA-N
(2-cyanoethanesulfonyl)acetic acid methyl ester,COC(=O)CS(=O)(=O)CCC#N,191.208,,28000,25,"Patent; SUMITOMO SEIKA CHEMICALS COMPANY LIMITED; FUKUDA, NORIAKI; BANDO, SEIJI; GOTO, KENTARO; (11 pag.)JP5703009; (2015); B2;",water,Solubility: 2.8 g/100g solvent,MUKDXHJAKGCWLH-UHFFFAOYSA-N
(2-cyanoethanesulfonyl)acetic acid ethyl ester,CCOC(=O)CS(=O)(=O)CCC#N,205.235,,22000,25,"Patent; SUMITOMO SEIKA CHEMICALS COMPANY LIMITED; FUKUDA, NORIAKI; BANDO, SEIJI; GOTO, KENTARO; (11 pag.)JP5703009; (2015); B2;",water,Solubility: 2.2 g/100g solvent,ZOAGICBUOQLVOV-UHFFFAOYSA-N
"3,5-dihydroxy-4-[3-(4-hydroxyphenyl)propanoyl]phenyl 2-O-(6-deoxy-alpha-L-mannopyranosyl)-beta-L-glucopyranoside; naringin dihydrochalcone",C[C@@H]1O[C@@H](O[C@H]2[C@H](O)[C@@H](O)[C@H](CO)O[C@@H]2OC2=CC(O)=C(C(=O)CCC3=CC=C(O)C=C3)C(O)=C2)[C@@H](O)[C@H](O)[C@H]1O,582.559,,242.86,24.99,"Article; Tang, Ning; Yan, Weidong; Journal of Chemical and Engineering Data; vol. 61; 12; (2016); p. 4085 - 4089;",water,Solubility: 0.0213 mol/1000mol,CWBZAESOUBENAP-AGMZGBJVSA-N
,[H][C@@]1(CC[C@@]2([H])[C@]3([H])CC=C4C[C@H](CC[C@]4(C)[C@@]3([H])CC[C@]12C)OCCOCCOCCOCCOCCOCCOCCOC)[C@H](C)CCCC(C)C,709.061,,40,20,"Patent; JENKEM TECHNOLOGY CO., LTD. (BEIJING); ZHU, Hui; LIN, Meina; CHEN, Xiaomeng; ZHU, Zhen'gang; ZHAO, Xuan; (14 pag.)US2018/44280; (2018); A1;",water,Solubility: 0.004 g/100g,IWOODIVFUPQBQW-JOGFJJBDSA-N
,[H][C@@]1(CC[C@@]2([H])[C@]3([H])CC=C4C[C@H](CC[C@]4(C)[C@@]3([H])CC[C@]12C)OCCCN(CCOCCOCCOC)CCOCCOCCOC)[C@H](C)CCCC(C)C,736.13,,150,20,"Patent; JENKEM TECHNOLOGY CO., LTD. (BEIJING); ZHU, Hui; LIN, Meina; CHEN, Xiaomeng; ZHU, Zhen'gang; ZHAO, Xuan; (14 pag.)US2018/44280; (2018); A1;",water,Solubility: 0.015 g/100g,LPEINDGVEBTKBD-VUGUNLIASA-N
cobamamide,[H][C@]1(CO)O[C@]2([H])N3C=[N](C4=C3C=C(C)C(C)=C4)[Co+3]345([CH2-][C@@]6([H])O[C@@]([H])(N7C=NC8=C7C=CC=C8)[C@]([H])(O)[C@]6([H])O)[N-]6C7=C(C)C8=[N]3C(=CC3=[N]4C(=C(C)C4=[N]5[C@@](C)([C@@]6([H])[C@]([H])(CC(N)=O)[C@@]7(C)CCC(=O)NC[C@@]([H])(C)O[P@]([O-])(=O)O[C@@]1([H])[C@@]2([H])O)[C@@](C)(CC(N)=O)[C@]4([H])CCC(N)=O)[C@@](C)(CC(N)=O)[C@]3([H])CCC(N)=O)C(C)(C)[C@]8([H])CCC(N)=O,1562.67,,130,25,"Patent; Zhengzhou University; Jiangsu Jiuxu Pharmaceutical Co., Ltd.; Li Wen; Liu Hongmin; Guo Shanshan; Shi Xiufang; Ke Yu; Yang Chen; Zhou Zhaoqing; Li Pengkun; Li Hong; (28 pag.)CN107236012; (2017); A;",water,Solubility: 0.013 g/100g solvent,HLWWLNNCVVLHER-ZSZLSSDASA-L