Name,SMILES,Molar Mass,CAS Number,Experimental Solubility in Water (mg/L),Temperature (deg C),Experiment Reference,,comment,Standard InChIKey
dl-trans-camphenoic acid; dl-trans-Camphensaeure,CC(C)([C@@H]1CC[C@H](C1)C(O)=O)C(O)=O,200.235,473-35-8,3200,19.5,"Article; Aschan; Justus Liebigs Annalen der Chemie; vol. 383; (1911); p. 33,37; Justus Liebigs Annalen der Chemie; vol. 410; (1915); p. 229;",H2O,100 g solvent dissolves. 0.32 g Substance.,QSRHRQWRLFGZKS-RNFRBKRXSA-N
"4,7-dioxo-decanoic acid; 4,7-Dioxo-decansaeure",CCCC(=O)CCC(=O)CCC(O)=O,200.235,,15000,20,"Article; Breusch; Ulusoy; Istanbul Universitesi Fen Fakultesi Mecmuasi, Seri A: Matematik-Fizik-Kimya; vol. 13; (1948); p. 54; Chem.Abstr.; (1948); p. 5850;",H2O,Solubility:1.5 percent.,OUEZUXSRCSDWFC-UHFFFAOYSA-N
"1,1-bis-methanesulfonyl-propane; alpha.alpha-Bis-methylsulfon-propan; 1,1-Bis-methansulfonyl-propan",CCC(S(C)(=O)=O)S(C)(=O)=O,200.28,,11111.11,15,Article; Baumann; Kast; Hoppe-Seyler's Zeitschrift fuer Physiologische Chemie; vol. 14; (1890); p. 55;,H2O,1 part(s) of substance.dissolves in:90 parts of solvent.,BRRBKYKQHCNLTB-UHFFFAOYSA-N
6-methylamino-toluene-3-sulfonic acid; 6-Methylamino-toluol-3-sulfonsaeure,CNC1=CC=C(C=C1C)S(O)(=O)=O,201.246,,34980,15,Article; Gnehm; Blumer; Justus Liebigs Annalen der Chemie; vol. 304; (1899); p. 105;,H2O,3.498 part(s) of substance.dissolves in:100 parts of solvent.,VRWMDFIZUGGKML-UHFFFAOYSA-N
"pent-1-ene-1,3,4-tricarboxylic acid; Pent-1-en-1,3,4-tricarbonsaeure",CC(C(C=CC(O)=O)C(O)=O)C(O)=O,202.164,871888-46-9,333333.33,20,"Article; Kuester; Hoppe-Seyler's Zeitschrift fuer Physiologische Chemie; vol. 130; (1923); p. 4,11;",H2O,1 part(s) of substance.dissolves in:3 parts of solvent.; lower-melting pentene-(1)-tricarboxylic acid-(1.3.4),WUDHWVQIXXYAGZ-UHFFFAOYSA-N
"3-ethyl-decane-3,4-diol; alpha.alpha-Diaethyl-alpha'-n-hexyl-aethylenglykol; 3-Aethyl-decan-3,4-diol",CCCCCCC(O)C(O)(CC)CC,202.337,,700,15,Article; Nicolle; Bulletin de la Societe Chimique de France; vol. <4>39; (1926); p. 65;,H2O,Solubility :0.07 percent.,OKHVSVWXNBAZKC-UHFFFAOYSA-N
"2,3'-acetylimino-di-propionic acid; N-Acetyl-N-(1-carboxy-aethyl)-beta-alanin; N-Acetyl-N-(2-carboxy-aethyl)-DL-alanin; 2,3'-Acetylimino-di-propionsaeure",CC(N(CCC(O)=O)C(C)=O)C(O)=O,203.195,,600000,25,Article; McKinney et al.; Journal of the American Chemical Society; vol. 74; (1952); p. 5183;,H2O,100 g solvent dissolves. 60 g Substance.,KZTJCLJWIVFCLV-UHFFFAOYSA-N
2-amino-toluene-4-thiosulfonic acid; 2-Amino-toluol-4-thiosulfonsaeure,CC1=C(N)C=C(C=C1)S(S)(=O)=O,203.286,,12500,8,Article; Limpricht; Paysan; Justus Liebigs Annalen der Chemie; vol. 221; (1883); p. 363;,H2O,100 g solvent dissolves. 1.25 g Substance.,SIWVFCDEVNCNAQ-UHFFFAOYSA-N
3-bromo-5-methyl-furan-2-carboxylic acid; 3-Brom-5-methyl-furan-2-carbonsaeure,CC1=CC(Br)=C(O1)C(O)=O,205.008,,2800,21.4,Article; Hill; Jennings; American Chemical Journal; vol. 15; (1893); p. 184;,H2O,Solubility :0.28 percent.,HHUGUMIHJRHVRY-UHFFFAOYSA-N
"O1,O3;O4,O6-dimethanediyl-galactitol; O1,O3;O4,O6-Dimethandiyl-galactit",OC1COCOC1C1OCOCC1O,206.196,1219398-50-1,23809.52,4,Article; Weber; Tollens; Chemische Berichte; vol. 30; (1897); p. 2513; Justus Liebigs Annalen der Chemie; vol. 299; (1898); p. 335;,H2O,1 part(s) of substance.dissolves in:42 parts of solvent.,GXZHFJMSTUZHEU-UHFFFAOYSA-N
N-m-tolylacetyl-glycine; N-m-Tolylacetyl-glycin; m-Tolylacetaminoessigsaeure; m-Tolylacetursaeure,CC1=CC=CC(CC(=O)NCC(O)=O)=C1,207.229,111325-41-8,3000,20,Article; Fromherz; Hermanns; Hoppe-Seyler's Zeitschrift fuer Physiologische Chemie; vol. 89; (1914); p. 117;,H2O,100 g solvent dissolves. 0.3 g Substance.,REHOCKCHIHJNOS-UHFFFAOYSA-N
"2,5-diamino-Dg-threo-3,4-dihydroxy-adipic acid; 2,5-Diamino-Dg-threo-3,4-dihydroxy-adipinsaeure; 2.5-Diamino-Dg-threo-3.4-dihydroxy-hexandisaeure",[H][C@@](O)(C(N)C(O)=O)[C@]([H])(O)C(N)C(O)=O,208.171,,500,25,"Article; Fischer; Feldmann; Helvetica Chimica Acta; vol. 19; (1936); p. 538,539;",H2O,1 part(s) of substance.dissolves in:2000 parts of solvent.,AHAIAWWITBGKOF-BBYHKKGFSA-N
N-(2-ethoxy-phenyl)-N-ethyl-urea; N-(2-Aethoxy-phenyl)-N-aethyl-harnstoff,CCOC1=C(C=CC=C1)N(CC)C(N)=O,208.26,,49357.62,25,"Article; Hjort et al.; Journal of Pharmacology and Experimental Therapeutics; vol. 55; (1935); p. 152,153,156;",H2O,1000 g solvent dissolves. 0.237 Mol Substance.,XJDVZWHOKDYJEB-UHFFFAOYSA-N
N-(3-ethoxy-phenyl)-N-ethyl-urea; N-(3-Aethoxy-phenyl)-N-aethyl-harnstoff,CCOC1=CC=CC(=C1)N(CC)C(N)=O,208.26,,15202.98,25,"Article; Hjort et al.; Journal of Pharmacology and Experimental Therapeutics; vol. 55; (1935); p. 152,153,156;",H2O,1000 g solvent dissolves. 0.073 Mol Substance.,YZGHKIVQDWBQBJ-UHFFFAOYSA-N
"5-ethyl-2,6-dipropyl-3H-pyrimidin-4-one; 5-Aethyl-2,6-dipropyl-3H-pyrimidin-4-on",CCCC1=NC(CCC)=C(CC)C(=O)N1,208.304,,668,23,Article; v. Meyer; Journal fuer Praktische Chemie (Leipzig); vol. <2> 37; (1888); p. 398;,H2O,1 part(s) of substance.dissolves in:1497 parts of solvent.,XHGZXNKJJOKZIL-UHFFFAOYSA-N
L-lactic acid p-phenetidide; L-Milchsaeure-p-phenetidid,[H][C@@](C)(O)C(=O)NC1=CC=C(OCC)C=C1,209.245,539-08-2; 21931-58-8,4000,20,"Article; Brand; Priesner; Archiv der Pharmazie (Weinheim, Germany); vol. 285; (1952); p. 26,30;",H2O,100 g solvent dissolves. 0.400 g Substance.,GHZNWXGYWUBLLI-QMMMGPOBSA-N
2-methoxy-5-ureido-benzoic acid; 2-Methoxy-5-ureido-benzoesaeure,COC1=C(C=C(NC(N)=O)C=C1)C(O)=O,210.189,,2500,15,Article; Behrend; Herrmann; Justus Liebigs Annalen der Chemie; vol. 429; (1922); p. 164;,H2O,1 part(s) of substance.dissolves in:400 parts of solvent.,IGUCGSNJEWJRSM-UHFFFAOYSA-N
N-[4-(2-hydroxy-ethoxy)-phenyl]-N-methyl-urea; N-[4-(2-Hydroxy-aethoxy)-phenyl]-N-methyl-harnstoff; N-Methyl-N-[4-(beta-oxy-aethoxy)-phenyl]-harnstoff,CN(C(N)=O)C1=CC=C(OCCO)C=C1,210.233,,55865.92,21,Patent; C.F.Boehringer Soehne; DE377817; Fortschr. Teerfarbenfabr. Verw. Industriezweige; vol. 14; p. 1401;,H2O,1 part(s) of substance.dissolves in:17.9 parts of solvent.,USUBDYCBOPCBAI-UHFFFAOYSA-N
5-pentylsulfanyl-resorcinol; 3.5-Dihydroxy-1-pentylmercapto-benzol; Pentyl-(3.5-dihydroxy-phenyl)-sulfid; 5-Pentylmercapto-resorcin,CCCCCSC1=CC(O)=CC(O)=C1,212.313,,100,20,"Article; Suter; Harrington; Journal of the American Chemical Society; vol. 59; (1937); p. 2575,2577;",H2O,100 g solvent dissolves. 0.01 g Substance.,FFNYMQDIOMLFOJ-UHFFFAOYSA-N
"N,N-diisopentyl-O-methyl-isourea; N,N-Diisopentyl-O-methyl-isoharnstoff; O-Methyl-N.N-diisoamyl-isoharnstoff",COC(=N)N(CCC(C)C)CCC(C)C,214.351,,666.67,15,Article; McKee; American Chemical Journal; vol. 42; (1909); p. 21;,H2O,1 part(s) of substance.dissolves in:1500 parts of solvent.,XGFGZYZWBXZSEU-UHFFFAOYSA-N
(3-diethylamino-propyl)-carbamic acid propyl ester; (3-Diaethylamino-propyl)-carbamidsaeure-propylester,CCCOC(=O)NCCCN(CC)CC,216.324,,50000,25,Article; Shriner; Hickey; Journal of the American Chemical Society; vol. 61; (1939); p. 888;,H2O,100 g solvent dissolves. 5 g Substance.,GEMHHSVKYACDIM-UHFFFAOYSA-N
2-lactoyloxy-propionic acid sec-butyl ester; 2-Lactoyloxy-propionsaeure-sec-butylester,CCC(C)OC(=O)C(C)OC(=O)C(C)O,218.25,,11600,25,Article; Rehberg; Dixon; Journal of the American Chemical Society; vol. 74; (1952); p. 1609;,H2O,1000 g solvent dissolves. 11.6 g Substance.,MPQVYAQIWQSBCN-UHFFFAOYSA-N
(+/-)-threo-2.3-dihydroxy-undecanoic acid; (+/-)-threo-2.3-Dihydroxy-undecylsaeure,[H][C@@](O)(CCCCCCCC)[C@]([H])(O)C(O)=O,218.293,,800,20,"Article; Breusch; Tulus; Istanbul Universitesi Fen Fakultesi Mecmuasi, Seri A: Matematik-Fizik-Kimya; vol. 12; (1947); p. 291; Chem.Abstr.; (1948); p. 6751;",H2O,Solubility :0.08 percent.,OUDGDEAMCWDUJD-ZJUUUORDSA-N
"2,6-diamino-toluene-4-thiosulfonic acid; 2,6-Diamino-toluol-4-thiosulfonsaeure",CC1=C(N)C=C(C=C1N)S(S)(=O)=O,218.301,,840,13,Article; Perl; Chemische Berichte; vol. 18; (1885); p. 67;,H2O,100 g solvent dissolves. 0.084 g Substance.,MAVVRJGCLTVMNE-UHFFFAOYSA-N
"(2,4-dioxo-chroman-3-yl)-acetic acid; (2,4-Dioxo-chroman-3-yl)-essigsaeure",OC(=O)CC1C(=O)OC2=CC=CC=C2C1=O,220.182,,1700,20,Article; Mueller; Schneyder; Monatshefte fuer Chemie; vol. 80; (1949); p. 232;,H2O,100 g solvent dissolves. 0.17 g Substance.,AVDMKQUIUYMGOQ-UHFFFAOYSA-N
N-butyl-D-arabinonamide; N-Butyl-D-arabinonamid; D-Arabinonsaeure-butylamid,[H][C@@](O)(CO)[C@@]([H])(O)[C@]([H])(O)C(=O)NCCCC,221.254,1195558-12-3,50000,20,"Article; Dubourg; Naffa; Bulletin de la Societe Chimique de France; (1959); p. 1353,1361;",H2O,Solubility :5 percent.,DAUDXPVLZTUEEW-PRJMDXOYSA-N
N-(2-carboxy-ethyl)-methionine; N-(2-Carboxy-aethyl)-methionin,[H]C(CCSC)(NCCC(O)=O)C(O)=O,221.277,5347-14-8,12000,7,Article; McKinney et al.; Journal of the American Chemical Society; vol. 74; (1952); p. 1942;,H2O,100 g solvent dissolves. 1.2 g Substance.,DRPIQWYKUGTOPA-UHFFFAOYSA-N
acetic acid-(N-isopropyl-p-phenetidide); Essigsaeure-(N-isopropyl-p-phenetidid); 4-(Acetylisopropylamino)-phenol-aethylaether; N-Isopropyl-(acet-p-phenetidid); N-Isopropyl-phenacetin,CCOC1=CC=C(C=C1)N(C(C)C)C(C)=O,221.299,,3846.15,30,Article; Hinsberg; Justus Liebigs Annalen der Chemie; vol. 305; (1899); p. 287;,H2O,1 part(s) of substance.dissolves in:260 parts of solvent.,SXVXFLZABXNCKF-UHFFFAOYSA-N
2-ethoxy-5-ureido-benzoic acid; 2-Aethoxy-5-ureido-benzoesaeure,CCOC1=C(C=C(NC(N)=O)C=C1)C(O)=O,224.216,99068-85-6,1515.15,15,Article; Behrend; Herrmann; Justus Liebigs Annalen der Chemie; vol. 429; (1922); p. 173;,H2O,1 part(s) of substance.dissolves in:660 parts of solvent.,YLXWYKLHNQMWGX-UHFFFAOYSA-N
N-phenyl-tartramide; N-Phenyl-tartramid,NC(=O)C(O)C(O)C(=O)NC1=CC=CC=C1,224.216,,4730,21.5,Article; Casale; Gazzetta Chimica Italiana; vol. 47 I; (1917); p. 275;,H2O,100 g solvent dissolves. 0.473 g Substance.; d-tartranilic acid amide,DVCCXXUWAAIMLG-UHFFFAOYSA-N
"6-chloro-1,3-dioxo-isoindoline-4-carboxylic acid; 6-Chlor-1,3-dioxo-isoindolin-4-carbonsaeure",OC(=O)C1=C2C(=O)NC(=O)C2=CC(Cl)=C1,225.588,,1469,15,"Article; Daschewskii; Petrenko; Zhurnal Obshchei Khimii; vol. 25; (1955); p. 1189,1193; engl. Ausg. S. 1139, 1141;",H2O,100 g solvent dissolves. 0.1469 g Substance.,IZEXKWBBUXWLSO-UHFFFAOYSA-N
"5-chloro-1,3-dioxo-isoindoline-4-carboxylic acid; 5-Chlor-1,3-dioxo-isoindolin-4-carbonsaeure",OC(=O)C1=C2C(=O)NC(=O)C2=CC=C1Cl,225.588,,1418,21,"Article; Daschewskii; Petrenko; Zhurnal Obshchei Khimii; vol. 25; (1955); p. 1189,1193; engl. Ausg. S. 1139, 1141;",H2O,100 g solvent dissolves. 0.1418 g Substance.,VEPYPFDIBYBUCO-UHFFFAOYSA-N
N2-(furan-2-carbonyl)-asparagine; N2-(Furan-2-carbonyl)-asparagin,NC(=O)CC(NC(=O)C1=CC=CO1)C(O)=O,226.189,,10671.22,16,Article; Baum; Chemische Berichte; vol. 37; (1904); p. 2955;,H2O,1 part(s) of substance.dissolves in:93.71 parts of solvent.; furfuroyl-l-asparagine,VSCIFXWBJOSBSX-UHFFFAOYSA-N
3-benzenesulfonyl-crotonic acid; 3-Benzolsulfonyl-crotonsaeure; 3-Benzolsulfonyl-crotonsaeure vom Schmelzpunkt 158grad; beta-Phenylsulfon-crotonsaeure,CC(=CC(O)=O)S(=O)(=O)C1=CC=CC=C1,226.253,67959-58-4; 67959-59-5,3816.79,15,Article; Autenrieth; Justus Liebigs Annalen der Chemie; vol. 259; (1890); p. 352;,H2O,1 part(s) of substance.dissolves in:262 parts of solvent.; isomer(ic) I,FZOGEDKJIPKFRY-UHFFFAOYSA-N
N-(furan-2-carbonyl)-aspartic acid; N-(Furan-2-carbonyl)-asparaginsaeure,OC(=O)CC(NC(=O)C1=CC=CO1)C(O)=O,227.174,,88888.89,19.5,Article; Baum; Chemische Berichte; vol. 37; (1904); p. 2955;,H2O,1 part(s) of substance.dissolves in:11.25 parts of solvent.; furfuroyl-l-aspartic acid,YQTLEIHRDNVLQE-UHFFFAOYSA-N
"(1R)-2,2-dimethyl-3t-(1-semicarbazono-ethyl)-cyclobutane-r-carboxylic acid; (1R)-2,2-Dimethyl-3t-(1-semicarbazono-aethyl)-cyclobutan-r-carbonsaeure",CC(=NNC(N)=O)[C@@H]1C[C@@H](C(O)=O)C1(C)C,227.263,28587-42-0; 92772-96-8,1200,18,"Article; Delepine; Badoche; Annales de Chimie (Cachan, France); vol. <12> 6; (1951); p. 777,782;",H2O,Solubility :0.12 percent.,BFVVECCIWSSZKY-BQBZGAKWSA-N
"2,5,7-trimethyl-hexahydro-pyrano[4,3-b]pyran-3-carboxylic acid amide; 2,5,7-Trimethyl-hexahydro-pyrano[4,3-b]pyran-3-carbonsaeure-amid",CC1CC2OC(C)C(CC2C(C)O1)C(N)=O,227.304,854696-95-0,16300,15,Article; Badoche; Comptes Rendus Hebdomadaires des Seances de l'Academie des Sciences; vol. 216; (1943); p. 488;,H2O,100 g solvent dissolves. 1.63 g Substance.; optically inactive substance of mp: 240 degree,UIDOPEHKLZEMIF-UHFFFAOYSA-N
"2,5,7-trimethyl-hexahydro-pyrano[4,3-b]pyran-3-carboxylic acid; 2,5,7-Trimethyl-hexahydro-pyrano[4,3-b]pyran-3-carbonsaeure",CC1CC2OC(C)C(CC2C(C)O1)C(O)=O,228.288,,2500,16,Article; Badoche; Comptes Rendus Hebdomadaires des Seances de l'Academie des Sciences; vol. 216; (1943); p. 488;,H2O,100 g solvent dissolves. 0.25 g Substance.; optically inactive substance of mp: 117 degree,DLJUQFFCQDKBCW-UHFFFAOYSA-N
"3,3-bis-methanesulfonyl-pentane; Bis-(methylsulfon)-diaethyl-methan; 3,3-Bis-methansulfonyl-pentan; 3.3-Bis-(methylsulfon)-pentan",CCC(CC)(S(C)(=O)=O)S(C)(=O)=O,228.334,,1190.48,15,Article; Baumann; Kast; Hoppe-Seyler's Zeitschrift fuer Physiologische Chemie; vol. 14; (1890); p. 55;,H2O,1 part(s) of substance.dissolves in:840 parts of solvent.,QUPLGTAVLUDQBX-UHFFFAOYSA-N
(3-diethylamino-propyl)-carbamic acid butyl ester; (3-Diaethylamino-propyl)-carbamidsaeure-butylester,CCCCOC(=O)NCCCN(CC)CC,230.351,,9000,25,Article; Shriner; Hickey; Journal of the American Chemical Society; vol. 61; (1939); p. 888;,H2O,100 g solvent dissolves. 0.9 g Substance.,MZKJWMWWJFJAFX-UHFFFAOYSA-N
(3-diethylamino-propyl)-carbamic acid isobutyl ester; (3-Diaethylamino-propyl)-carbamidsaeure-isobutylester,CCN(CC)CCCNC(=O)OCC(C)C,230.351,,11000,25,Article; Shriner; Hickey; Journal of the American Chemical Society; vol. 61; (1939); p. 888;,H2O,100 g solvent dissolves. 1.1 g Substance.,FHPJLJZYKOWQOD-UHFFFAOYSA-N
"4-propyl-undecane-4,5-diol; alpha.alpha-Dipropyl-alpha'-n-hexyl-aethylenglykol; 4-Propyl-undecan-4,5-diol",CCCCCCC(O)C(O)(CCC)CCC,230.391,,16,15,Article; Nicolle; Bulletin de la Societe Chimique de France; vol. <4>39; (1926); p. 65;,H2O,Solubility :0.0016 percent.,SHVMGABLLAMZIN-UHFFFAOYSA-N
2-amino-6-nitro-toluene-4-sulfonic acid; 2-Amino-6-nitro-toluol-4-sulfonsaeure,CC1=C(N)C=C(C=C1N(=O)=O)S(O)(=O)=O,232.217,138911-67-8,9737.1,19,Article; Marckwald; Justus Liebigs Annalen der Chemie; vol. 274; (1893); p. 357;,H2O,1 part(s) of substance.dissolves in:102.7 parts of solvent.,KIUBHRALEUATLY-UHFFFAOYSA-N
"propionic acid-(2,4-dichloro-benzyl ester); Propionsaeure-(2,4-dichlor-benzylester)",CCC(=O)OCC1=C(Cl)C=C(Cl)C=C1,233.094,85262-94-8,200,20,Article; CARTER; CHARLTON; FENTON; HOUSLEY; LESSEL; The Journal of pharmacy and pharmacology; vol. 10; Supp; (1958); p. 149-157T; discussion 157-159T;,H2O,5 kg solvent dissolves. 1 g Substance.,ABVWCZFYRJJFFG-UHFFFAOYSA-N
"3-(2,4-dioxo-chroman-3-yl)-propionic acid; 3-(2,4-Dioxo-chroman-3-yl)-propionsaeure",OC(=O)CCC1C(=O)OC2=CC=CC=C2C1=O,234.208,,470,20,"Article; Mueller et al.; Monatshefte fuer Chemie; vol. 81; (1950); p. 174,177;",H2O,100 g solvent dissolves. 0.047 g Substance.,NNVDHSBVCIWHPR-UHFFFAOYSA-N
N-phenylcarbamoyl-DL-threonine; N-Phenylcarbamoyl-DL-threonin,[H][C@](C)(O)[C@]([H])(NC(=O)NC1=CC=CC=C1)C(O)=O,238.243,,6700,0,"Article; Izumiya; Nippon Kagaku Zasshi; vol. 72; (1951); p. 784,785; Chem.Abstr.; (1953); p. 1599;",H2O,Solubility :0.67 percent.,FADXUWPDOUTCNH-APPZFPTMSA-N
(4-lactoylamino-phenoxy)-acetic acid amide; (4-Lactoylamino-phenoxy)-essigsaeure-amid; 4-Lactylamino-phenoxyessigsaeure-amid,CC(O)C(=O)NC1=CC=C(OCC(N)=O)C=C1,238.243,,11976.05,25,Patent; Akt.-Ges.f.Anilinf.; DE102892; Fortschr. Teerfarbenfabr. Verw. Industriezweige; vol. 5; p. 763;,H2O,1 part(s) of substance.dissolves in:83.5 parts of solvent.,FAUZSTTUYOYPJW-UHFFFAOYSA-N
4-diethylamino-toluene-2-sulfonic acid; 4-Diaethylamino-toluol-2-sulfonsaeure,CCN(CC)C1=CC(=C(C)C=C1)S(O)(=O)=O,243.327,,15000,12,"Article; Schmidt,R.; Journal fuer Praktische Chemie (Leipzig); vol. <2> 48; (1893); p. 57;",H2O,1.5 part(s) of substance.dissolves in:100 parts of solvent.,RCCYAEPSKFPTJS-UHFFFAOYSA-N
"2,4,6-trimethyl-[1,3,5]trithiane-1,1,3,3-tetraoxide; 2,4,6-Trimethyl-[1,3,5]trithian-1,1,3,3-tetraoxid",CC1SC(C)S(=O)(=O)C(C)S1(=O)=O,244.357,,1156.07,20,Article; Baumann; Chemische Berichte; vol. 26; (1893); p. 2076;,H2O,1 part(s) of substance.dissolves in:865 parts of solvent.,IVHACOZGCAFEPX-UHFFFAOYSA-N
(3-diethylamino-propyl)-carbamic acid pentyl ester; (3-Diaethylamino-propyl)-carbamidsaeure-pentylester,CCCCCOC(=O)NCCCN(CC)CC,244.378,,5000,25,Article; Shriner; Hickey; Journal of the American Chemical Society; vol. 61; (1939); p. 888;,H2O,100 g solvent dissolves. 0.5 g Substance.,GWZPAJAZTQYCPT-UHFFFAOYSA-N
(3-diethylamino-propyl)-carbamic acid isopentyl ester; (3-Diaethylamino-propyl)-carbamidsaeure-isopentylester,CCN(CC)CCCNC(=O)OCCC(C)C,244.378,,6000,25,Article; Shriner; Hickey; Journal of the American Chemical Society; vol. 61; (1939); p. 888;,H2O,100 g solvent dissolves. 0.6 g Substance.,QRXKPRKTHHCFRB-UHFFFAOYSA-N
"acetic acid-[3-(2,3-dimethyl-5-oxo-2,5-dihydro-pyrazol-1-yl)-anilide]; Essigsaeure-[3-(2,3-dimethyl-5-oxo-2,5-dihydro-pyrazol-1-yl)-anilid]",CN1N(C(=O)C=C1C)C1=CC=CC(NC(C)=O)=C1,245.281,,14000,25,Article; Michaelis; Justus Liebigs Annalen der Chemie; vol. 378; (1911); p. 319;,H2O,Solubility :1.4 percent.,ZHJOWUYJOISNDP-UHFFFAOYSA-N
2-lactoyloxy-propionic acid hexyl ester; 2-Lactoyloxy-propionsaeure-hexylester,CCCCCCOC(=O)C(C)OC(=O)C(C)O,246.304,73747-55-4,800,25,Article; Rehberg; Dixon; Journal of the American Chemical Society; vol. 74; (1952); p. 1609;,H2O,1000 g solvent dissolves. 0.8 g Substance.,GVMIXAYWPARWDD-UHFFFAOYSA-N
(-)(R)-1.2-bis-(alpha-carboxy-isopropylamino)-propane; (-)(R)-1.2-Bis-(alpha-carboxy-isopropylamino)-propan,[H][C@@](C)(CNC(C)(C)C(O)=O)NC(C)(C)C(O)=O,246.307,,20000,20,"Article; Pfeiffer; Christeleit; Chemische Berichte; vol. 71; (1938); p. 1497,1503;",H2O,Solubility :2 percent.,BGELXODQYRCVSP-SSDOTTSWSA-N
"3-chloro-4-hydroxy-benzoic acid-(2,3-dihydroxy-propyl ester); 3-Chlor-4-hydroxy-benzoesaeure-(2,3-dihydroxy-propylester)",OCC(O)COC(=O)C1=CC(Cl)=C(O)C=C1,246.647,,10000,18,"Article; Sabalitschka; Archiv der Pharmazie (Weinheim, Germany); vol. 269; (1931); p. 228,244;",H2O,Solubility :1 percent.,BPSKFYIYTLVIJU-UHFFFAOYSA-N
2-ethyl-6-iodo-phenol; 2-Aethyl-6-jod-phenol,CCC1=C(O)C(I)=CC=C1,248.063,,900,25,"Article; Suter; Schuetz; Journal of Organic Chemistry; vol. 16; (1951); p. 1117,1119;",H2O,100 g solvent dissolves. 0.09 g Substance.,LLQHYJPVIROUFO-UHFFFAOYSA-N
"4-(2,4-dioxo-chroman-3-yl)-butyric acid; 4-(2,4-Dioxo-chroman-3-yl)-buttersaeure",OC(=O)CCCC1C(=O)OC2=CC=CC=C2C1=O,248.235,,190,20,"Article; Mueller et al.; Monatshefte fuer Chemie; vol. 81; (1950); p. 174,177;",H2O,100 g solvent dissolves. 0.019 g Substance.,DQHDYRHOEGGCOE-UHFFFAOYSA-N
2-isobutyl-3-phenyl-succinic acid; alpha-Isobutyl-alpha'-phenyl-bernsteinsaeure; 4-Methyl-1-phenyl-pentan-dicarbonsaeure-(1.2); 2-Isobutyl-3-phenyl-bernsteinsaeure,CC(C)CC(C(C(O)=O)C1=CC=CC=C1)C(O)=O,250.295,,1330,25,Article; Upson; Thompson; Journal of the American Chemical Society; vol. 44; (1922); p. 182;,H2O,100 g solvent dissolves. 0.133 g Substance.,FZHHLTWTWCUMFM-UHFFFAOYSA-N
(2-bromo-heptanoyl)-urea; (alpha-Brom-oenanthoyl)-harnstoff; alpha-Brom-oenanthsaeure-ureid; (2-Brom-heptanoyl)-harnstoff,CCCCCC(Br)C(=O)NC(N)=O,251.123,,150,20,Article; Tiffeneau; Ardely; Bulletin des Sciences Pharmacologiques; vol. 28; p. 158; Chemisches Zentralblatt; vol. 92; III; (1921); p. 366;,H2O,100 g solvent dissolves. 0.015 g Substance.,BCYAWRXPCQIOGL-UHFFFAOYSA-N
DL-threo-N-benzoyl-3-methoxy-norvaline; DL-threo-N-Benzoyl-3-methoxy-norvalin,[H][C@@](CC)(OC)[C@@]([H])(NC(=O)C1=CC=CC=C1)C(O)=O,251.282,,2020,0,"Article; Izumiya; Nippon Kagaku Zasshi; vol. 72; (1951); p. 784,785; Chem.Abstr.; (1953); p. 1599;",H2O,100 g solvent dissolves. 0.202 g Substance.,MPFSPKRXBFVVDT-WDEREUQCSA-N