Name,SMILES,Molar Mass,CAS Number,Experimental Solubility in Water (mg/L),Temperature (deg C),Experiment Reference,,comment,Standard InChIKey
"5-tert-butyl-5-(2-piperidino-ethyl)-imidazolidine-2,4-dione; 5-tert-Butyl-5-(2-piperidino-aethyl)-imidazolidin-2,4-dion",CC(C)(C)C1(CCN2CCCCC2)NC(=O)NC1=O,267.371,,4300,20,Patent; Cassella; US2615897; (1949);,H2O,Solubility :0.43 percent.,HCVLNNKQCXRPHS-UHFFFAOYSA-N
"3,4-dimethoxy-phthalic acid-1-propyl ester; 3,4-Dimethoxy-phthalsaeure-1-propylester; Hemipinsaeure-propylester-(1)",CCCOC(=O)C1=C(C(O)=O)C(OC)=C(OC)C=C1,268.266,,1618.12,20,"Article; Wegscheider; Monatshefte fuer Chemie; vol. 16; (1895); p. 116,131;",H2O,1 part(s) of substance.dissolves in:<618 parts of solvent.,DONXXHPURVTROV-UHFFFAOYSA-N
"3,4-dimethoxy-phthalic acid-2-propyl ester; 3,4-Dimethoxy-phthalsaeure-2-propylester; Hemipinsaeure-propylester-(2)",CCCOC(=O)C1=C(C=CC(OC)=C1OC)C(O)=O,268.266,,757.58,20,"Article; Wegscheider; Monatshefte fuer Chemie; vol. 16; (1895); p. 116,131;",H2O,1 part(s) of substance.dissolves in:>1320 parts of solvent.,PCXBHZYINQWCIX-UHFFFAOYSA-N
2-beta-D-xylopyranosyloxy-benzoic acid amide; 2-beta-D-Xylopyranosyloxy-benzoesaeure-amid,NC(=O)C1=C(O[C@@H]2OC[C@@H](O)[C@H](O)[C@H]2O)C=CC=C1,269.254,108647-66-1,20000,25,"Article; Wagner; Kuehmstedt; Archiv der Pharmazie (Weinheim, Germany); vol. 290; (1957); p. 305,307, 308, 312;",H2O,Solubility :2 percent.,FYEBLNKXEIFCKT-LZDMXVKQSA-N
2-alpha-L-arabinopyranosyloxy-benzoic acid amide; 2-alpha-L-Arabinopyranosyloxy-benzoesaeure-amid,NC(=O)C1=C(O[C@@H]2OC[C@H](O)[C@H](O)[C@H]2O)C=CC=C1,269.254,100227-24-5,1800,25,"Article; Wagner; Kuehmstedt; Archiv der Pharmazie (Weinheim, Germany); vol. 290; (1957); p. 305,307, 308, 312;",H2O,Solubility :0.18 percent.,FYEBLNKXEIFCKT-ZFNBHVESSA-N
5-(benzenesulfonyl-methyl-amino)-valeric acid; 5-(Benzolsulfonyl-methyl-amino)-valeriansaeure; gamma-(Benzolsulfonyl-methyl-amino)-n-valeriansaeure,CN(CCCCC(O)=O)S(=O)(=O)C1=CC=CC=C1,271.337,46855-40-7,7500,20,Article; Peters; Hoppe-Seyler's Zeitschrift fuer Physiologische Chemie; vol. 159; (1926); p. 271;,H2O,0.75 g part(s) of substance.dissolves in:100 parts of solvent.,WFADZGFZNJEISA-UHFFFAOYSA-N
"2,6-diisobutyl-heptanedioic acid; 2,6-Diisobutyl-heptandisaeure",CC(C)CC(CCCC(CC(C)C)C(O)=O)C(O)=O,272.385,,380,13.5,Article; Perkin; Prentice; Journal of the Chemical Society; vol. 59; (1891); p. 842;,H2O,0.038 part(s) of substance.dissolves in:100 parts of solvent.,KZBJGHQEYDISNU-UHFFFAOYSA-N
N-(toluene-4-sulfonyl)-allothreonine; N-(Toluol-4-sulfonyl)-allothreonin,[H][C@@](C)(O)[C@]([H])(NS(=O)(=O)C1=CC=C(C)C=C1)C(O)=O,273.31,34235-88-6; 43188-50-7; 43188-51-8; 43188-52-9; 70275-29-5; 91280-33-0,2800,0,"Article; Izumiya; Nippon Kagaku Zasshi; vol. 72; (1951); p. 784,785; Chem.Abstr.; (1953); p. 1599;",H2O,100 g solvent dissolves. 0.28 g Substance.,SZILOGOOPIXJAQ-WPRPVWTQSA-N
2-alpha-L-arabinopyranosyloxy-benzoic acid methylamide; 2-alpha-L-Arabinopyranosyloxy-benzoesaeure-methylamid,CNC(=O)C1=C(O[C@@H]2OC[C@H](O)[C@H](O)[C@H]2O)C=CC=C1,283.281,100610-83-1,4000,25,"Article; Wagner; Kuehmstedt; Archiv der Pharmazie (Weinheim, Germany); vol. 290; (1957); p. 305,307, 308, 312;",H2O,Solubility :0.4 percent.,WEYICVXGKXUIOY-MGAJZRQESA-N
"2,3-bis-benzylamino-propionic acid; alpha.beta-Bis-benzylamino-propionsaeure; 2,3-Bis-benzylamino-propionsaeure",OC(=O)C(CNCC1=CC=CC=C1)NCC1=CC=CC=C1,284.358,859953-75-6,1111.11,14,Article; Frankland; Journal of the Chemical Society; vol. 97; (1910); p. 1689;,H2O,1 part(s) of substance.dissolves in:900 parts of solvent.,QFBISNZUNXTDMA-UHFFFAOYSA-N
(+/-)-threo-3-hydroxy-2-(toluene-4-sulfonylamino)-valeric acid; (+/-)-threo-3-Hydroxy-2-(toluol-4-sulfonylamino)-valeriansaeure,[H][C@@](O)(CC)[C@]([H])(NS(=O)(=O)C1=CC=C(C)C=C1)C(O)=O,287.337,,2840,0,"Article; Izumiya; Nippon Kagaku Zasshi; vol. 72; (1951); p. 784,785; Chem.Abstr.; (1953); p. 1599;",H2O,100 g solvent dissolves. 0.284 g Substance.,YAACXIWJDMJCIM-MNOVXSKESA-N
(+/-)-erythro-3-hydroxy-2-(toluene-4-sulfonylamino)-valeric acid; (+/-)-erythro-3-Hydroxy-2-(toluol-4-sulfonylamino)-valeriansaeure,[H][C@](O)(CC)[C@]([H])(NS(=O)(=O)C1=CC=C(C)C=C1)C(O)=O,287.337,,570,0,"Article; Izumiya; Nippon Kagaku Zasshi; vol. 72; (1951); p. 784,785; Chem.Abstr.; (1953); p. 1599;",H2O,100 g solvent dissolves. 0.057 g Substance.,YAACXIWJDMJCIM-QWRGUYRKSA-N
"5-phenyl-5-(2-piperidino-ethyl)-imidazolidine-2,4-dione; 5-Phenyl-5-(2-piperidino-aethyl)-imidazolidin-2,4-dion",O=C1NC(=O)C(CCN2CCCCC2)(N1)C1=CC=CC=C1,287.362,,2900,20,Patent; Cassella; US2615897; (1949);,H2O,Solubility :0.29 percent.,OFILSBVTOAEBBS-UHFFFAOYSA-N
N-(4-nitro-toluene-2-sulfonyl)-alanine; N-(4-Nitro-toluol-2-sulfonyl)-alanin,CC(NS(=O)(=O)C1=C(C)C=CC(=C1)N(=O)=O)C(O)=O,288.281,67320-40-5,1449.27,12,Article; Siegfried; Hoppe-Seyler's Zeitschrift fuer Physiologische Chemie; vol. 43; (1904); p. 68;,H2O,1 part(s) of substance.dissolves in:690 parts of solvent.,TVQAUZKNFJQEJF-UHFFFAOYSA-N
"2-(2,5-dihydroxy-benzoyloxy)-5-hydroxy-benzoic acid; 2-(2,5-Dihydroxy-benzoyloxy)-5-hydroxy-benzoesaeure; 5-Oxy-2-(2.5-dioxy-benzoyloxy)-benzoesaeure; Digentisinsaeure",OC(=O)C1=C(OC(=O)C2=C(O)C=CC(O)=C2)C=CC(O)=C1,290.229,,1111.11,0,"Article; Fischer,E.; Freudenberg; Justus Liebigs Annalen der Chemie; vol. 384; (1911); p. 233;",H2O,1 part(s) of substance.dissolves in:900 parts of solvent.,YPPSLAMICVKPBR-UHFFFAOYSA-N
Chlormethantrisulfonsaeure; chloro-methanetrisulfonic acid; Chlor-methantrisulfonsaeure,OS(=O)(=O)C(Cl)(S(O)(=O)=O)S(O)(=O)=O,290.68,76371-36-3,2547000,25,Article; Perret; Biechler; Comptes Rendus Hebdomadaires des Seances de l'Academie des Sciences; vol. 203; (1936); p. 85;,H2O,100 g solvent dissolves. 254.7 g Substance.,AASRJJKRVOUFBO-UHFFFAOYSA-N
"(3,7-dimethyl-2,6-dioxo-2,3,6,7-tetrahydro-purin-1-yl)-acetic acid diethylamide; (3,7-Dimethyl-2,6-dioxo-2,3,6,7-tetrahydro-purin-1-yl)-essigsaeure-diaethylamid",CCN(CC)C(=O)CN1C(=O)N(C)C2=C(N(C)C=N2)C1=O,293.326,,7800,25,"Article; Masi; Ricerca Scientifica; vol. 22; (1952); p. 1596,1599;",H2O,Solubility :0.78 percent.,IQTLXVUCYDGNSL-UHFFFAOYSA-N
(5-ethoxy-2-lactoylamino-phenyl)-carbamic acid ethyl ester; (5-Aethoxy-2-lactoylamino-phenyl)-carbamidsaeure-aethylester; 3-Carbaethoxyamino-4-lactylamino-phenetol; 3-Aethoxy-6-lactylamino-phenylurethan,CCOC(=O)NC1=C(NC(=O)C(C)O)C=CC(OCC)=C1,296.323,,5000,15,Article; Maron; Bloch; Chemische Berichte; vol. 47; (1914); p. 721;; ; Patent; Bayer & Co.; DE286460; Fortschr. Teerfarbenfabr. Verw. Industriezweige; vol. 12; p. 685;,H2O,1 part(s) of substance.dissolves in:200 parts of solvent.,DOWHSRPYVPEZCN-UHFFFAOYSA-N
(+/-)-erythro-3-methoxy-2-(toluene-4-sulfonylamino)-valeric acid; (+/-)-erythro-3-Methoxy-2-(toluol-4-sulfonylamino)-valeriansaeure,[H][C@@](CC)(OC)[C@]([H])(NS(=O)(=O)C1=CC=C(C)C=C1)C(O)=O,301.364,,310,0,"Article; Izumiya; Nippon Kagaku Zasshi; vol. 72; (1951); p. 784,785; Chem.Abstr.; (1953); p. 1599;",H2O,100 g solvent dissolves. 0.031 g Substance.,QPDMTRIGKDMQOT-RYUDHWBXSA-N
(+/-)-threo-3-methoxy-2-(toluene-4-sulfonylamino)-valeric acid; (+/-)-threo-3-Methoxy-2-(toluol-4-sulfonylamino)-valeriansaeure,[H][C@](CC)(OC)[C@]([H])(NS(=O)(=O)C1=CC=C(C)C=C1)C(O)=O,301.364,,600,0,"Article; Izumiya; Nippon Kagaku Zasshi; vol. 72; (1951); p. 784,785; Chem.Abstr.; (1953); p. 1599;",H2O,100 g solvent dissolves. 0.06 g Substance.,QPDMTRIGKDMQOT-NEPJUHHUSA-N
N2-(2-bromo-4-methyl-valeryl)-asparagine; N2-(2-Brom-4-methyl-valeryl)-asparagin,CC(C)CC(Br)C(=O)NC(CC(N)=O)C(O)=O,309.16,,8000,25,"Article; Fischer,E.; Koenigs; Chemische Berichte; vol. 37; (1904); p. 4590; Chemische Berichte; vol. 40; (1907); p. 2049;",H2O,1 part(s) of substance.dissolves in:100-150 parts of solvent.; <d-alpha-bromo-isocaproyl>-l-asparagine,FIIULLVFTJXSIT-UHFFFAOYSA-N
acetone-[4-(4'-nitro-biphenyl-4-yl)-semicarbazone]; Aceton-[4-(4'-nitro-biphenyl-4-yl)-semicarbazon],C\C(C)=N/NC(=O)NC1=CC=C(C=C1)C1=CC=C(C=C1)N(=O)=O,312.328,,1,20,"Article; Barre; Piche; Canadian Journal of Research, Section B: Chemical Sciences; vol. 20; (1942); p. 17,19;",H2O,Solubility :0.0001 percent.,UXFFYVMPRPUHJK-UHFFFAOYSA-N
"5-ethyl-5-[2-(2-diethylamino-ethoxy)-phenyl]-imidazolidine-2,4-dione; 5-Aethyl-5-[2-(2-diaethylamino-aethoxy)-phenyl]-imidazolidin-2,4-dion",CCN(CC)CCOC1=C(C=CC=C1)C1(CC)NC(=O)NC1=O,319.404,,1600,20,Patent; Cassella; US2615897; (1949);,H2O,Solubility :0.16 percent.,GOXCBTZAGZSWNA-UHFFFAOYSA-N
"5-ethyl-5-[4-(2-diethylamino-ethoxy)-phenyl]-imidazolidine-2,4-dione; 5-Aethyl-5-[4-(2-diaethylamino-aethoxy)-phenyl]-imidazolidin-2,4-dion",CCN(CC)CCOC1=CC=C(C=C1)C1(CC)NC(=O)NC1=O,319.404,,6300,20,Patent; Cassella; US2615897; (1949);,H2O,Solubility :0.63 percent.,PLQJWNTVEWKVOK-UHFFFAOYSA-N
"D-glucaric acid bis-butylamide; D-Glucarsaeure-bis-butylamid; D-Glucarsaeure-N,N'-dibutylamid",[H][C@](O)(C(=O)NCCCC)[C@@]([H])(O)[C@]([H])(O)[C@]([H])(O)C(=O)NCCCC,320.386,6614-45-5,2500,24.5,Article; Kurtz; Wilson; Journal of Biological Chemistry; vol. 129; (1939); p. 695;,H2O,100 g solvent dissolves. 0.25 g Substance.,VPIYOAPBIPFIAH-FIQHERPVSA-N
2-Naphthylsulfonylglycylglycin; N-[N-(naphthalene-2-sulfonyl)-glycyl]-glycine; N-[N-(Naphthalin-2-sulfonyl)-glycyl]-glycin,OC(=O)CNC(=O)CNS(=O)(=O)C1=CC2=CC=CC=C2C=C1,322.342,93886-70-5,647.25,20,"Article; Fischer,E.; Bergell; Chemische Berichte; vol. 35; (1902); p. 3780,3781; Chemische Berichte; vol. 37; (1904); p. 3107;",H2O,1 part(s) of substance.dissolves in:1545 parts of solvent.,UDUALFJGGCLPRJ-UHFFFAOYSA-N
"3beta,7beta,16alpha,17beta-tetrahydroxyandrost-5-ene; androst-5-ene-3beta,7beta,16alpha,17beta-tetrol; HE3177",[H][C@@]12C[C@@H](O)[C@H](O)[C@@]1(C)CC[C@@]1([H])[C@@]2([H])[C@@H](O)C=C2C[C@@H](O)CC[C@]12C,322.445,1001100-64-6,560.88,22,"Article; Ahlem, Clarence N.; Page, Theodore M.; Auci, Dominick L.; Kennedy, Michael R.; Mangano, Katia; Nicoletti, Ferdinando; Ge, Yu; Huang, Yujin; White, Steven K.; Villegas, Sonia; Conrad, Douglas; Wang, Angela; Reading, Christopher L.; Frincke, James M.; Steroids; vol. 76; 1-2; (2011); p. 145 - 155;",water,Solubility: 1740 mumol/l,DBJXJRIEZQPLSN-WGNZAZMQSA-N
"3alpha,7beta,16alpha,17beta-tetrahydroxyandrost-5-ene; androst-5-ene-3alpha,7beta,16alpha,17beta-tetrol; HE3413",[H][C@@]12C[C@@H](O)[C@H](O)[C@@]1(C)CC[C@@]1([H])[C@@]2([H])[C@@H](O)C=C2C[C@H](O)CC[C@]12C,322.445,1001100-66-8,9318.66,22,"Article; Ahlem, Clarence N.; Page, Theodore M.; Auci, Dominick L.; Kennedy, Michael R.; Mangano, Katia; Nicoletti, Ferdinando; Ge, Yu; Huang, Yujin; White, Steven K.; Villegas, Sonia; Conrad, Douglas; Wang, Angela; Reading, Christopher L.; Frincke, James M.; Steroids; vol. 76; 1-2; (2011); p. 145 - 155;",water,Solubility: 28900 mumol/l,DBJXJRIEZQPLSN-WKCUVNKGSA-N
"5-[4-(2-diethylamino-ethoxy)-phenyl]-5-propyl-imidazolidine-2,4-dione; 5-[4-(2-Diaethylamino-aethoxy)-phenyl]-5-propyl-imidazolidin-2,4-dion",CCCC1(NC(=O)NC1=O)C1=CC=C(OCCN(CC)CC)C=C1,333.431,,1900,20,Patent; Cassella; US2615897; (1949);,H2O,Solubility :0.19 percent.,MVWUUGSGQHBHCT-UHFFFAOYSA-N
"2,4'',5-trichloro-p-terphenyl; 2,5,4''-Trichlor-p-terphenyl",ClC1=CC=C(C=C1)C1=CC=C(C=C1)C1=CC(Cl)=CC=C1Cl,333.644,61576-93-0,7.41E-10,25,"Article; Dickhut, Rebecca M.; Miller, Kristine E.; Andren, Anders W.; Chemosphere; vol. 29; 2; (1994); p. 283 - 298;",H2O,Solubility: 2.22e-09 mol-percent,PERMVKOWFVIOCX-UHFFFAOYSA-N
10-bromo-phenanthrene-3-sulfonic acid; 10-Brom-phenanthren-3-sulfonsaeure,OS(=O)(=O)C1=CC2=C(C=C1)C(Br)=CC1=C2C=CC=C1,337.194,,100000,15,Article; Sandqvist; Justus Liebigs Annalen der Chemie; vol. 417; (1918); p. 32; Chemisches Zentralblatt; vol. 89; II; (1918); p. 1032;,H2O,100 g solvent dissolves. >10 g Substance.,HRANQSSWOCZJIN-UHFFFAOYSA-N
"2,4,8,10-tetraoxa-3,9-diphosphaspiro[5.5]undecane-3,9-dimethanol, alpha,alpha,alpha',alpha'-tetramethyl-3,9-dioxide",CC(C)(O)P1(=O)OCC2(CO1)COP(=O)(OC2)C(C)(C)O,344.238,66063-49-8,2014.48,24.85,"Article; Fan, Rui-Lan; Wang, Li-Sheng; Guo, Ting-Ting; Wu, Jun-Sheng; Journal of Chemical and Engineering Data; vol. 52; 4; (2007); p. 1340 - 1342;",H2O,Solubility: 0.5852 molpercent,XSTCQMIXQXXYCY-UHFFFAOYSA-N
"3,7-dimethyl-6-(4-(trifluoromethyl)benzyl)quinoline-5,8-dione; 6-(4-(trifluoromethyl)benzyl)-3,7-dimethylquinoline-5,8-dione",CC1=CC2=C(N=C1)C(=O)C(C)=C(CC1=CC=C(C=C1)C(F)(F)F)C2=O,345.321,1393101-84-2,0.1,20,"Article; Lanfranchi, Don Antoine; Cesar-Rodo, Elena; Bertrand, Benoit; Huang, Hsin-Hung; Day, Latasha; Johann, Laure; Elhabiri, Mourad; Becker, Katja; Williams, David L.; Davioud-Charvet, Elisabeth; Organic and Biomolecular Chemistry; vol. 10; 31; (2012); p. 6375 - 6387;",water,Solubility: 0.29 mumol/l,BWLVJWVJFCORJC-UHFFFAOYSA-N
"7-(4-(trifluoromethyl)benzyl)-3,6-dimethylquinoline-5,8-dione",CC1=CC2=C(N=C1)C(=O)C(CC1=CC=C(C=C1)C(F)(F)F)=C(C)C2=O,345.321,1393101-76-2,0.03,20,"Article; Lanfranchi, Don Antoine; Cesar-Rodo, Elena; Bertrand, Benoit; Huang, Hsin-Hung; Day, Latasha; Johann, Laure; Elhabiri, Mourad; Becker, Katja; Williams, David L.; Davioud-Charvet, Elisabeth; Organic and Biomolecular Chemistry; vol. 10; 31; (2012); p. 6375 - 6387;",water,Solubility: 0.08 mumol/l,CPNRELLPLDLWTR-UHFFFAOYSA-N
"7-(4-bromobenzyl)-3,6-dimethylquinoline-5,8-dione",CC1=CC2=C(N=C1)C(=O)C(CC1=CC=C(Br)C=C1)=C(C)C2=O,356.219,1393101-74-0,0.01,20,"Article; Lanfranchi, Don Antoine; Cesar-Rodo, Elena; Bertrand, Benoit; Huang, Hsin-Hung; Day, Latasha; Johann, Laure; Elhabiri, Mourad; Becker, Katja; Williams, David L.; Davioud-Charvet, Elisabeth; Organic and Biomolecular Chemistry; vol. 10; 31; (2012); p. 6375 - 6387;",water,Solubility: 0.03 mumol/l,PIYBBASFABJOFM-UHFFFAOYSA-N
,COCCN(CCOC)C1=C(C=C(C=C1N(=O)=O)C(F)(F)F)N(=O)=O,367.282,26389-77-5,137,24,"Article; Benbow, John W.; Bernberg, Erin L.; Korda, Anna; Mead, Jan R.; Antimicrobial Agents and Chemotherapy; vol. 42; 2; (1998); p. 339 - 343;",H2O,Solubility: 0.0137 weight-percent,RDQCKAXWNNCELQ-UHFFFAOYSA-N
"2,4,4'',6-tetrachloro-p-terphenyl; 2,4,6,4''-Tetrachlor-p-terphenyl",ClC1=CC=C(C=C1)C1=CC=C(C=C1)C1=C(Cl)C=C(Cl)C=C1Cl,368.089,61576-97-4,0.31,25,"Article; Dickhut, Rebecca M.; Miller, Kristine E.; Andren, Anders W.; Chemosphere; vol. 29; 2; (1994); p. 283 - 298;",H2O,Solubility: 8.51e-1 mol-percent,WDBLRJMGICHAKX-UHFFFAOYSA-N
"3-bromo-2,3-diiodo-acrylic acid; 3-Brom-2,3-dijod-acrylsaeure; 3-bromo-2,3-diiodoacrylic acid",OC(=O)C(\I)=C(\Br)I,402.753,83442-56-2,20673.97,20,Article; Mabery; Lloyd; American Chemical Journal; vol. 3; (1881); p. 127;,H2O,1 part(s) of substance.dissolves in:48.37 parts of solvent.,BWTBNELHFHOXGK-OWOJBTEDSA-N
"2-ethyl-hexanoic acid-{bis-[2-(2-ethyl-hexanoyloxy)-ethyl]-amide}; 2-Aethyl-capronsaeure-{bis-[2-(2-aethyl-caproyloxy)-aethyl]-amid}; 2-Aethyl-hexansaeure-{bis-[2-(2-aethyl-hexanoyloxy)-aethyl]-amid}; 2-ethyl-hexanoic acid, [(2-ethyl-1-oxohexyl)imino]di-2,1-ethanediyl ester",CCCCC(CC)C(=O)OCCN(CCOC(=O)C(CC)CCCC)C(=O)C(CC)CCCC,483.733,134-67-8,100,20,Patent; Carbide & Carbon Chem.Corp.; US2472900; (1946);,H2O,Solubility :0.01 percent.,YYIIMEOVMYJQST-UHFFFAOYSA-N
"3-amino-2,4,5,6-tetrabromo-benzenesulfonic acid; 3-Amino-2,4,5,6-tetrabrom-benzolsulfonsaeure; 2.4.5.6-Tetrabrom-anilin-sulfonsaeure-(3)",NC1=C(Br)C(Br)=C(Br)C(=C1Br)S(O)(=O)=O,488.777,,21.7,11,Article; Beckurts; Justus Liebigs Annalen der Chemie; vol. 181; (1876); p. 216;,H2O,100 g solvent dissolves. 2.17 mg Substance.,ASIIZGRTILNQRM-UHFFFAOYSA-N
"2-amino-3,4,5,6-tetrabromo-benzenesulfonic acid; 2-Amino-3,4,5,6-tetrabrom-benzolsulfonsaeure; 3.4.5.6-Tetrabrom-anilin-sulfonsaeure-(2)",NC1=C(C(Br)=C(Br)C(Br)=C1Br)S(O)(=O)=O,488.777,,298,11,Article; Spiegelberg; Justus Liebigs Annalen der Chemie; vol. 197; (1879); p. 257;,H2O,100 g solvent dissolves. 0.0298 g Substance.,AIPLTKVVGLQKGI-UHFFFAOYSA-N
2-nonanone cyanohydrin,CCCCCCCC(C)(O)C#N,169.267,77316-68-8,500,20,"Article; Ogibin, Yu. N.; Velibekova, D. S.; Katsin, M. I.; Troyanskii, E. I.; Nikishin, G. I.; Bulletin of the Academy of Sciences of the USSR, Division of Chemical Science (English Translation); vol. 30; 1; (1981); p. 127 - 133; Izvestiya Akademii Nauk SSSR, Seriya Khimicheskaya; 1; (1981); p. 149 - 156;",H2O,Solubility: 0.05 p(g/100g solution),OKOATPXSNBENJP-UHFFFAOYSA-N
,CCCCSCCOCCO,178.296,23387-78-2,19612.56,25,"Article; Sokolowski, Adam; Journal of Physical Chemistry; vol. 93; 25; (1989); p. 8223 - 8226;",H2O,Solubility: 0.11 mol/kg,RHRBIPVXZYRKDO-UHFFFAOYSA-N
"(-)-1-(1,2-dicarboxy-ethyl)-pyridinium betaine; (-)-1-(1,2-Dicarboxy-aethyl)-pyridinium-betain",OC(=O)CC(C([O-])=O)[N+]1=CC=CC=C1,195.175,59137-44-9,16400,18,Article; Lutz; Zhurnal Russkago Fiziko-Khimicheskago Obshchestva; vol. 41; (1909); p. 1581; Chemische Berichte; vol. 43; (1910); p. 2636; Chemisches Zentralblatt; vol. 71; II; (1900); p. 1012;,H2O,1.64 part(s) of substance.dissolves in:100 parts of solvent.,SKISTOOMZBRPLT-UHFFFAOYSA-N
"2-[(2-hydroxyethyl)dimethylammonio]ethanesulfonate; 2-<(2-Hydroxy-aethyl)-dimethyl-ammonio>-aethan-sulfonsaeure-(1)-betain, <2-HYdroxy-aethyl>-dimethyltaurinbetain; 2-[(2-Hydroxy-aethyl)-dimethyl-ammonio]-aethan-sulfonsaeure-(1)-betain, (2-HYdroxy-aethyl)-dimethyltaurinbetain",C[N+](C)(CCO)CCS([O-])(=O)=O,197.255,91673-91-5,527000,30,"Article; Barnhurst,J.D.; Journal of Organic Chemistry; vol. 26; (1961); p. 4520 - 4522;",H2O,Solubility: 52.7 p(g/100g solution),BVXLNVUPFNBTKO-UHFFFAOYSA-N
,CCCCCCSCCOCCO,206.349,87064-01-5,1588.89,25,"Article; Sokolowski, Adam; Journal of Physical Chemistry; vol. 93; 25; (1989); p. 8223 - 8226;",H2O,Solubility: 0.0077 mol/kg,RZRAIUMCYHFWCL-UHFFFAOYSA-N
"(3-hydroxy-1,5,5-trimethylcyclohexyl)methylisothiocyanate",CC1(C)CC(O)CC(C)(CN=C=S)C1,213.344,,230,25,"Article; Tajima; Kimoto; Taketo; Taketo; Bioscience, biotechnology, and biochemistry; vol. 62; 3; (1998); p. 491 - 495;",H2O,Solubility: 0.023 weight-percent,MODXDVACOYKJHY-UHFFFAOYSA-N
,CCCCSCCOCCOCCO,222.349,111290-05-2,29572.42,25,"Article; Sokolowski, Adam; Journal of Physical Chemistry; vol. 93; 25; (1989); p. 8223 - 8226;",H2O,Solubility: 0.133 mol/kg,VOYOIGCUHRVCTO-UHFFFAOYSA-N
(S)-N-benzyl-2-hydroxy-succinamic acid; (S)-N-Benzyl-2-hydroxy-succinamidsaeure,O[C@@H](CC(=O)NCC1=CC=CC=C1)C(O)=O,223.229,141650-65-9,13900,18,Article; Lutz; Chemische Berichte; vol. 37; (1904); p. 2125; Chemisches Zentralblatt; vol. 71; II; (1900); p. 1011;,H2O,1.39 part(s) of substance.dissolves in:100 parts of solvent.,AWENCJBDNVGPNN-VIFPVBQESA-N
,CCCCCCCCSCCOCCO,234.403,87064-00-4,131.27,25,"Article; Sokolowski, Adam; Journal of Physical Chemistry; vol. 93; 25; (1989); p. 8223 - 8226;",H2O,Solubility: 0.00056 mol/kg,OPFRXVSGBZCPFM-UHFFFAOYSA-N
,CCCCCCCCSCCOCCOCCO,278.456,33091-94-0,194.92,25,"Article; Sokolowski, Adam; Journal of Physical Chemistry; vol. 93; 25; (1989); p. 8223 - 8226;",H2O,Solubility: 0.00070 mol/kg,PQTOSHDDJMDWTF-UHFFFAOYSA-N
"2-hydroxy-N-(3,4-dimethyl-5-isoxazolyl)-1,4-naphthoquinone 4-imine 1-<O-(carboxymethyl)oxime>; 2-hydroxy-N-(3,4-dimethyl-5-isoxazolyl)-1,4-naphthoquinone 4-imine 1-[O-(carboxymethyl)oxime]",CC1=NOC(/N=C2\C=C(O)C(=NOCC(O)=O)C3=CC=CC=C23)=C1C,341.323,,93,25,Article; Sperandeo; de Bertorello; Brinon; Journal of pharmaceutical sciences; vol. 83; 3; (1994); p. 332 - 335;,H2O,Solubility: 0.0093 p(g/100g solution),UKNRKCGOFASYEU-MBNPSQQBSA-N
"(22S)-3alpha,7alpha,23-trihydroxy-5beta-cholan-24-oic acid; (23S)-3alpha,7alpha,23-trihydroxy-5beta-cholan-24-oic acid",[H][C@@]1(CC[C@@]2([H])[C@]3([H])[C@H](O)C[C@]4([H])C[C@H](O)CC[C@]4(C)[C@@]3([H])CC[C@]12C)[C@H](C)C[C@H](O)C(O)=O,408.579,105880-09-9,180,25,"Article; Pellicciari, Roberto; Natalini, Benedetto; Roda, Aldo; Machado, M. Iracema Lacerda; Marinozzi, Maura; Journal of the Chemical Society, Perkin Transactions 1: Organic and Bio-Organic Chemistry (1972-1999); (1989); p. 1289 - 1296;",H2O,Solubilty: 180 <unit not given>,SLDVWYDDPPFGHK-CIEAULFFSA-N