Name,SMILES,Molar Mass,CAS Number,Experimental Solubility in Water (mg/L),Temperature (deg C),Experiment Reference,,comment,Standard InChIKey
"1-hydroxy-5,7-dimethyl-bicyclo[3.3.1]nonan-3-one; 1-Hydroxy-5,7-dimethyl-bicyclo[3.3.1]nonan-3-on",CC1CC2(C)CC(=O)CC(O)(C1)C2,182.263,,33333.33,25,"Article; Rabe; Appuhn; Chemische Berichte; vol. 76; (1943); p. 982,986;",H2O,1 part(s) of substance.dissolves in:30 parts of solvent.,JLGFNTDFBFTLPI-UHFFFAOYSA-N
"(6-methyl-2,4-dioxo-1,2,3,4-tetrahydro-pyrimidin-5-yl)-urea; (6-Methyl-2,4-dioxo-1,2,3,4-tetrahydro-pyrimidin-5-yl)-harnstoff",CC1=C(NC(N)=O)C(=O)NC(=O)N1,184.155,,1600,16,"Article; Behrend; Lehmann; Justus Liebigs Annalen der Chemie; vol. 253; (1889); p. 77,84;",H2O,100 g solvent dissolves. 0.16 g Substance.,IDBZRABRQPICFI-UHFFFAOYSA-N
3-bromo-3-chloro-acrylic acid; 3-Brom-3-chlor-acrylsaeure,OC(=O)\C=C(\Cl)Br,185.405,,57438.25,20,Article; Mabery; Lloyd; American Chemical Journal; vol. 3; (1881); p. 127;,H2O,1 part(s) of substance.dissolves in:17.41 parts of solvent.,FZUHXWTWXISPQG-OWOJBTEDSA-N
6-amino-toluene-2-sulfonic acid; 6-Amino-toluol-2-sulfonsaeure; 2-Aminotoluol-6-sulfonsaeure,CC1=C(C=CC=C1N)S(O)(=O)=O,187.219,6387-19-5,3412.97,22,Article; Pagel; Justus Liebigs Annalen der Chemie; vol. 176; (1875); p. 304;,H2O,1 part(s) of substance.dissolves in:293 parts of solvent.,KEISVHMIDOVJRP-UHFFFAOYSA-N
isopentyl-methyl-malonic acid; Isopentyl-methyl-malonsaeure,CC(C)CCC(C)(C(O)=O)C(O)=O,188.224,,6000,25,Article; Meldrum; Journal of Physical Chemistry; vol. 15; (1911); p. 479;,H2O,Solubility :0.6 percent.,KOHFIJRRRUCTFL-UHFFFAOYSA-N
N-(carboxyethyl)valine; N-(2-carboxy-ethyl)-valine; N-(2-Carboxy-aethyl)-valin,CC(C)C(NCCC(O)=O)C(O)=O,189.211,92402-78-3,24000,7,Article; McKinney et al.; Journal of the American Chemical Society; vol. 74; (1952); p. 1942;,H2O,100 g solvent dissolves. 2.4 g Substance.,JQNOJPRGXMMBQO-UHFFFAOYSA-N
3-carbamoylazo-benzoic acid amide; 3-Carbamoylazo-benzoesaeure-amid; 3-Aminoformyl-benzolazoformamid; Benzamid-(3 azo)-formamid,NC(=O)\N=N\C1=CC=CC(=C1)C(N)=O,192.177,,700,15,Article; Doucet; Journal de Pharmacie et de Chimie; vol. <7>27; (1923); p. 364; Chemisches Zentralblatt; 1923 IV.386;,H2O,100 g solvent dissolves. 0.07 g Substance.,FYMCICGEGWOUKR-VAWYXSNFSA-N
N-ethyl-N-(2-ethyl-phenyl)-urea; N-Aethyl-N-(2-aethyl-phenyl)-harnstoff,CCN(C(N)=O)C1=C(CC)C=CC=C1,192.261,,18500,20,Article; Hjort et al.; Journal of Pharmacology and Experimental Therapeutics; vol. 68; (1940); p. 56;,H2O,100 g solvent dissolves. 1.85 g Substance.,PVCCTWLOCMALDY-UHFFFAOYSA-N
acetic acid-(4-ethoxy-2-methyl-anilide); Essigsaeure-(4-aethoxy-2-methyl-anilid); 6-Acetamino-3-aethoxy-toluol; 6-Acetamino-3-aethoxy-1-methyl-benzol; 4-Actamino-m-kresol-aethylaether,CCOC1=CC(C)=C(NC(C)=O)C=C1,193.246,41570-59-6,2800,25,Article; Bogert; Connitt; Journal of the American Chemical Society; vol. 51; (1929); p. 905;,H2O,0.28 part(s) of substance.dissolves in:100 parts of solvent.,GWGGYWFWMFMBKT-UHFFFAOYSA-N
"9-ethyl-6-methyl-1,7-dihydro-9H-purine-2,8-dione; 9-Aethyl-6-methyl-1,7-dihydro-9H-purin-2,8-dion",CCN1C(=O)NC2=C(C)NC(=O)N=C12,194.193,,2000,20,Article; Johns; Baumann; Journal of Biological Chemistry; vol. 15; (1913); p. 121;,H2O,1 part(s) of substance.dissolves in:500 parts of solvent.,RQFIKOVKIQITKN-UHFFFAOYSA-N
3-isopropyl-2-methyl-4-oxo-cyclohex-2-enecarboxylic acid; 2-Methyl-3-isopropyl-cyclohexen-(2)-on-(4)-carbonsaeure-(1); 3-Isopropyl-2-methyl-4-oxo-cyclohex-2-encarbonsaeure; 2-Methyl-3-methoaethyl-cyclohexen-(2)-on-(4)-carbonsaeure-(1); o-Menthen-(1)-on-(3)-carbonsaeure-(6),CC(C)C1=C(C)C(CCC1=O)C(O)=O,196.246,,2000,20,Article; Dieckmann; Chemische Berichte; vol. 45; (1912); p. 2686; Chemische Berichte; vol. 55; (1922); p. 2479;,H2O,1 part(s) of substance.dissolves in:500 parts of solvent.,CEPBYQYNGNEBGB-UHFFFAOYSA-N
"5-butyl-5-methyl-pyrimidine-2,4,6-trione; 5-butyl-5-methyl-barbituric acid; 5-Butyl-5-methyl-barbitursaeure; 5-Methyl-5-n-butyl-barbitursaeure",CCCCC1(C)C(=O)NC(=O)NC1=O,198.222,53943-60-5,1800,15,Article; Sommaire; Bulletin de la Societe Chimique de France; vol. <4> 33; (1923); p. 195;,H2O,100 g solvent dissolves. 0.18 g Substance.,XJBUMFHGCCXBNP-UHFFFAOYSA-N
"5-butylsulfanyl-resorcinol; 3.5-Dihydroxy-1-butylmercapto-benzol; Butyl-(3.5-dihydroxy-phenyl)-sulfid; 5-Butylmercapto-resorcin; 1-n-Butylthio-3,5-dihydroxibenzol",CCCCSC1=CC(O)=CC(O)=C1,198.286,54839-92-8,600,20,"Article; Suter; Harrington; Journal of the American Chemical Society; vol. 59; (1937); p. 2575,2577;",H2O,100 g solvent dissolves. 0.06 g Substance.,OBUQICZSPJTRQI-UHFFFAOYSA-N
"(2,4,5-trimethyl-phenyl)-phosphonic acid; 1.2.4-Trimethyl-benzol-phosphinsaeure-(5); (2,4,5-Trimethyl-phenyl)-phosphonsaeure; 2.4.5-Trimethyl-phenylphosphinsaeure; Pseudocumol-phosphinsaeure-(5)",CC1=CC(C)=C(C=C1C)P(O)(O)=O,200.174,,8213,19,Article; Michaelis; Justus Liebigs Annalen der Chemie; vol. 294; (1897); p. 15;,H2O,0.8213 part(s) of substance.dissolves in:100 parts of solvent.,UUSSQAVJZFUZRC-UHFFFAOYSA-N
4-methylamino-toluene-3-sulfonic acid; 4-Methylamino-toluol-3-sulfonsaeure,CNC1=C(C=C(C)C=C1)S(O)(=O)=O,201.246,,11600,18,Article; Rassow; Reim; Journal fuer Praktische Chemie (Leipzig); vol. <2> 93; (1916); p. 238;,H2O,100 g solvent dissolves. 1.16 g Substance.,IXHFTUPDKSWOPQ-UHFFFAOYSA-N
2-lactoyloxy-propionic acid allyl ester; 2-Lactoyloxy-propionsaeure-allylester,CC(O)C(=O)OC(C)C(=O)OCC=C,202.207,6283-80-3,42000,25,Article; Rehberg; Dixon; Journal of the American Chemical Society; vol. 74; (1952); p. 1609;,H2O,1000 g solvent dissolves. 42 g Substance.,CPKMYVLHYLGADM-UHFFFAOYSA-N
"3,5-dimethyl-4-thia-hepta-2t,5t-dienedioic acid; 3,5-dimethyl-4-thia-hepta-2,5-dienedioic acid; 3,5-Dimethyl-4-thia-hepta-2t,5t-diendisaeure; Bis-((E)-2-carboxy-1-methyl-vinyl)-sulfid; Bis-(alpha-methyl-beta-carboxy-vinyl)-sulfid; 3,5-Dimethyl-4-thia-hepta-2,5-diendisaeure; beta.beta'-Thio-dicrotonsaeure",C\C(S\C(C)=C\C(O)=O)=C/C(O)=O,202.231,7345-19-9,1000,25,Article; Scheibler; Bube; Chemische Berichte; vol. 48; (1915); p. 1456;,H2O,1 part(s) of substance.dissolves in:1000 parts of solvent.,GBZKICBSIONZCF-GGWOSOGESA-N
6-trifluoromethyl-7(9)H-purin-2-ylamine; 6-Trifluormethyl-7(9)H-purin-2-ylamin,NC1=NC2=C(NC=N2)C(=N1)C(F)(F)F,203.126,2993-20-6,149.25,20,"Article; Giner-Sorolla; Bendich; Journal of the American Chemical Society; vol. 80; (1958); p. 5744,5751;",H2O,6700 g solvent dissolves. 1 g Substance.,BPGSASFKCZQNNZ-UHFFFAOYSA-N
(7(9)H-purin-6-yl)-carbamic acid ethyl ester; (7(9)H-Purin-6-yl)-carbamidsaeure-aethylester; 6-Aethoxycarbonylaminopurin,CCOC(=O)NC1=C2NC=NC2=NC=N1,207.192,29767-72-4,238.1,20,"Article; Giner-Sorolla; Bendich; Journal of the American Chemical Society; vol. 80; (1958); p. 3932,3935;",H2O,4200 g solvent dissolves. 1 g Substance.,UZDTUTWDEFBFHJ-UHFFFAOYSA-N
2-(carbamimidoyl-carbamoyl)-propane-2-sulfonic acid; 2-(Carbamimidoyl-carbamoyl)-propan-2-sulfonsaeure; Isobutyrylguanidin-alpha-sulfonsaeure; (alpha-Sulfo-isobutyryl)-guanidin,CC(C)(C(=O)NC(N)=N)S(O)(=O)=O,209.226,856084-69-0,13333.33,20,Article; Andreasch; Monatshefte fuer Chemie; vol. 46; (1925); p. 27;,H2O,1 part(s) of substance.dissolves in:75 parts of solvent.,BQMXAUOJNFZXPY-UHFFFAOYSA-N
(4-propoxy-phenoxy)-acetic acid; (4-Propoxy-phenoxy)-essigsaeure,CCCOC1=CC=C(OCC(O)=O)C=C1,210.23,,1000,20,"Article; Nametkin et al.; Zhurnal Obshchei Khimii; vol. 21; (1951); p. 327,328; engl. Ausg. S. 359, 360;",H2O,100 g solvent dissolves. 0.1 g Substance.,ZOZBDXUBFHRCQD-UHFFFAOYSA-N
N-(furan-2-carbonyl)-alanin-ethyl ester; N-(Furan-2-carbonyl)-alanin-aethylester; N-(2-Furancarbonyl)-(+/-)-alanin-ethylester,CCOC(=O)C(C)NC(=O)C1=CC=CO1,211.218,39978-21-7,16641.7,17,Article; Baum; Chemische Berichte; vol. 37; (1904); p. 2955;,H2O,1 part(s) of substance.dissolves in:60.09 parts of solvent.,OPKQHVFOHFHTAI-UHFFFAOYSA-N
2-arsono-butyric acid; 2-Arsono-buttersaeure,CCC(C(O)=O)[As](O)(O)=O,212.034,,2626000,20,Article; Backer; Mulder; Recueil des Travaux Chimiques des Pays-Bas; vol. 55; (1936); p. 362;,H2O,100 g solvent dissolves. 262.6 g Substance.; (+-)-2-arsono-butyric acid,WSCIUENQKYEJSG-UHFFFAOYSA-N
(+/-)-((4arH.8atH)-decahydro-naphthyl-(2c)-oxy)-acetic acid; (+/-)-((4arH.8atH)-Decahydro-naphthyl-(2c)-oxy)-essigsaeure,[H][C@]12CCCC[C@]1([H])C[C@@H](CC2)OCC(O)=O,212.289,,7000,20,"Article; Mousseron; Comptes Rendus Hebdomadaires des Seances de l'Academie des Sciences; vol. 220; (1945); p. 462;; ; Article; Mousseron; Brun; Bulletin de la Societe Chimique de France; (1947); p. 616,617;",H2O,Solubility :0.7 percent.,BIZYCWBMCFYVIB-GMTAPVOTSA-N
"5-ethyl-5-(beta-dimethylamino-isopropyl)-imidazolidine-2,4-dione; 5-Aethyl-5-(beta-dimethylamino-isopropyl)-imidazolidin-2,4-dion",CCC1(NC(=O)NC1=O)C(C)CN(C)C,213.28,,26000,20,Patent; Cassella; US2615897; (1949);,H2O,"Solubility :2.6 percent.; 5-ethyl-5-<beta-dimethylamino-isopropyl>-imidazolidine-2,4-dione (racemat of mp: 194 degree )",PWPYQYJNESQMBG-UHFFFAOYSA-N
hept-1-enyl-succinic acid; Hept-1-enyl-bernsteinsaeure,CCCCC\C=C\C(CC(O)=O)C(O)=O,214.262,,1623.78,17,"Article; Fittig; Stuber; Justus Liebigs Annalen der Chemie; vol. 305; (1899); p. 10,17;",H2O,1 part(s) of substance.dissolves in:616 parts of solvent.,CZAIVOIDCDMOGT-VOTSOKGWSA-N
2-cyano-3-(4-isopropylphenyl)propanamide; 2-cyano-3-(4-isopropyl-phenyl)-propionic acid amide; 2-Cyan-3-(4-isopropyl-phenyl)-propionsaeure-amid; Cuminyl-cyan-acetamid,CC(C)C1=CC=C(CC(C#N)C(N)=O)C=C1,216.283,,250,15,Article; Guareschi; Chemisches Zentralblatt; vol. 73; II; (1902); p. 700;,H2O,1 part(s) of substance.dissolves in:4000 parts of solvent.,PYIUDPSNNIFWSX-UHFFFAOYSA-N
3-benzoylamino-valeric acid; 3-Benzoylamino-valeriansaeure; beta-Benzamino-n-valeriansaeure,CCC(CC(O)=O)NC(=O)C1=CC=CC=C1,221.256,105902-74-7,2066.12,25,Article; Anziegin; Gulewitsch; Hoppe-Seyler's Zeitschrift fuer Physiologische Chemie; vol. 158; (1926); p. 38;,H2O,1 part(s) of substance.dissolves in:484 parts of solvent.,SQHSIIRVBRNPAN-UHFFFAOYSA-N
2-hydroxy-3-(N'-phenyl-ureido)-propionic acid; alpha-Oxy-beta-(omega-phenyl-ureido)-propionsaeure; 2-Hydroxy-3-(N'-phenyl-ureido)-propionsaeure; N-Anilinoformyl-dl-isoserin,OC(CNC(=O)NC1=CC=CC=C1)C(O)=O,224.216,,5000,20,"Article; Fischer,E.; Leuchs; Chemische Berichte; vol. 35; (1902); p. 3797; Chemisches Zentralblatt; vol. 73; I; (1902); p. 762;",H2O,1 part(s) of substance.dissolves in:200 parts of solvent.,XOYLAOBLHHFCTC-UHFFFAOYSA-N
2Xi-amino-D-galacto-2-deoxy-heptonic acid; 2Xi-Amino-D-galacto-2-desoxy-heptonsaeure; 2-Amino-galacto-2-desoxy-heptonsaeure,[H][C@@](O)(CO)[C@]([H])(O)[C@]([H])(O)[C@@]([H])(O)C(N)C(O)=O,225.199,41325-41-1; 85955-10-8; 85955-11-9; 85955-12-0; 85955-13-1; 85955-14-2; 85955-15-3,1039.5,20,"Article; Fischer,E.; Leuchs; Chemische Berichte; vol. 35; (1902); p. 3797; Chemisches Zentralblatt; vol. 73; I; (1902); p. 762;",H2O,1 part(s) of substance.dissolves in:962 parts of solvent.,KITIHSGWGNRLMV-CJDMGZMPSA-N
2-arsono-valeric acid; 2-Arsono-valeriansaeure,CCCC(C(O)=O)[As](O)(O)=O,226.061,,2998000,20,Article; Backer; Mulder; Recueil des Travaux Chimiques des Pays-Bas; vol. 55; (1936); p. 362;,H2O,100 g solvent dissolves. 299.8 g Substance.; (+-)-2-arsono-valeric acid,AUTJWELSTOTLHI-UHFFFAOYSA-N
"4,8-dioxo-1,5-diazocane-2,6-dicarboxylic acid; 4,8-dioxo-octahydro-[1,5]diazocine-2,6-dicarboxylic acid; 4,8-Dioxo-octahydro-[1,5]diazocin-2,6-dicarbonsaeure",OC(=O)C1CC(=O)NC(CC(=O)N1)C(O)=O,230.177,,2000,3,"Article; Weygand; Dietrich; Chemische Berichte; vol. 87; (1954); p. 482,487;",H2O,Solubility :0.2 percent.,AELNAMANBMEDPB-UHFFFAOYSA-N
3-isohexyl-3-methyl-glutaric acid; 3-Isohexyl-3-methyl-glutarsaeure,CC(C)CCCC(C)(CC(O)=O)CC(O)=O,230.304,859306-61-9,2273.73,15,Article; Guareschi; Gazzetta Chimica Italiana; vol. 49 I; (1919); p. 129; Chemisches Zentralblatt; vol. 72; I; (1901); p. 821;,H2O,1 part(s) of substance.dissolves in:440 parts of solvent.,BFZDCHBFWJYFLL-UHFFFAOYSA-N
"5-ethyl-dodecane-5,6-diol; 5-Aethyl-dodecan-5,6-diol",CCCCCCC(O)C(O)(CC)CCCC,230.391,,14,15,Article; Nicolle; Bulletin des Sciences Pharmacologiques; vol. 31; p. 439; Chemisches Zentralblatt; vol. 95; II; (1924); p. 2349;,H2O,Solubility :0.0014 percent.; 5-ethyl-dodecanediol-(5.6); higher-melting form,SXBJYXKPPBNLTE-UHFFFAOYSA-N
"5-isobutyl-5-phenyl-imidazolidine-2,4-dione; 5-Isobutyl-5-phenyl-imidazolidin-2,4-dion",CC(C)CC1(NC(=O)NC1=O)C1=CC=CC=C1,232.282,6943-30-2; 100615-58-5,380,25,Article; Thompson; Bedell; Buffett; Journal of the American Chemical Society; vol. 47; (1925); p. 875;,H2O,100 g solvent dissolves. 0.038 g Substance.,SYVOCCKCQWJPAH-UHFFFAOYSA-N
"(2,4-dichloro-phenyl)-oxalamic acid; Oxalsaeure-mono-(2.4-dichlor-anilid); (2,4-Dichlor-phenyl)-oxalamidsaeure; (2.4-Dichlor-phenyl)-oxamidsaeure; 2.4-Dichlor-oxanilsaeure; 2,4-Dichlor-oxanilsaeure",OC(=O)C(=O)NC1=C(Cl)C=C(Cl)C=C1,234.039,17772-30-4,1237.62,25,Article; Dyer; Mixter; American Chemical Journal; vol. 8; (1886); p. 353;,H2O,1 part(s) of substance.dissolves in:808 parts of solvent.,OXPLSAGSBKFGEF-UHFFFAOYSA-N
alpha-(N-acetyl-o-toluidino)-isobutyric acid; alpha-(N-Acetyl-o-toluidino)-isobuttersaeure,CC(=O)N(C1=C(C)C=CC=C1)C(C)(C)C(O)=O,235.283,,490.2,25,"Article; Walden; Zeitschrift fuer Physikalische Chemie, Stoechiometrie und Verwandtschaftslehre; vol. 10; (1892); p. 640;",H2O,1 part(s) of substance.dissolves in:2040 parts of solvent.,XYYPJOOYJDWBGQ-UHFFFAOYSA-N
N-phenylcarbamoyl-DL-allothreonine; N-Phenylcarbamoyl-DL-allothreonin; (+/-)-erythro-2-(N'-Phenyl-ureido)-3-hydroxy-buttersaeure,[H][C@@](C)(O)[C@]([H])(NC(=O)NC1=CC=CC=C1)C(O)=O,238.243,,3300,0,"Article; Izumiya; Nippon Kagaku Zasshi; vol. 72; (1951); p. 784,785; Chem.Abstr.; (1953); p. 1599;",H2O,Solubility :0.33 percent.,FADXUWPDOUTCNH-CBAPKCEASA-N
"5-methyl-5-(beta-piperidino-isopropyl)-imidazolidine-2,4-dione; 5-Methyl-5-(beta-piperidino-isopropyl)-imidazolidin-2,4-dion",CC(CN1CCCCC1)C1(C)NC(=O)NC1=O,239.318,,15800,20,Patent; Cassella; US2615897; (1949);,H2O,"Solubility :1.58 percent.; 5-methyl-5-<beta-piperidino-isopropyl>-imidazolidine-2,4-dione (racemat of mp: 198 degree )",YHNOYYUKKYBHGC-UHFFFAOYSA-N
"6-ethyl-5-carbamoyl-6-methyl-2,4-dioxo-3-aza-bicyclo[3.1.0]hexane-1-carboxylic acid; 6-Aethyl-5-carbamoyl-6-methyl-2,4-dioxo-3-aza-bicyclo[3.1.0]hexan-1-carbonsaeure",CCC1(C)C2(C(N)=O)C(=O)NC(=O)C12C(O)=O,240.216,855886-42-9,2100,18,Article; Ghiglieno; Chemisches Zentralblatt; vol. 81; II; (1910); p. 806;,H2O,0.21 part(s) of substance.dissolves in:100 parts of solvent.; higher-melting form,QAECHCHFCRKHSL-UHFFFAOYSA-N
"5-butyl-5-isobutyl-pyrimidine-2,4,6-trione; 5-butyl-5-isobutyl-barbituric acid; 5-Butyl-5-isobutyl-barbitursaeure; 5-n-Butyl-5-isobutylbarbitursaeure",CCCCC1(CC(C)C)C(=O)NC(=O)NC1=O,240.302,53943-64-9,750,17,Article; Sommaire; Bulletin de la Societe Chimique de France; vol. <4> 33; (1923); p. 195;,H2O,100 g solvent dissolves. 0.075 g Substance.,YHSQMQXOPCKTIG-UHFFFAOYSA-N
d-tartaric acid mono-(4-oxy-anilide); N-(4-Oxy-phenyl)-d-tartramidsaeure; d-Weinsaeure-mono-(4-oxy-anilid),[H][C@](O)(C(O)=O)[C@@]([H])(O)C(=O)NC1=CC=C(O)C=C1,241.2,,42000,14,Article; Casale; Gazzetta Chimica Italiana; vol. 48 I; (1918); p. 118;,H2O,100 g solvent dissolves. 4.2 g Substance.,LDGHJCRSTOPLTF-HTQZYQBOSA-N
N-benzenesulfonyl-N-methyl-beta-alanine; N-Benzolsulfonyl-N-methyl-beta-alanin,CN(CCC(O)=O)S(=O)(=O)C1=CC=CC=C1,243.284,,9750,20,Article; Peters; Hoppe-Seyler's Zeitschrift fuer Physiologische Chemie; vol. 159; (1926); p. 271;,H2O,0.975 g part(s) of substance.dissolves in:100 parts of solvent.,LFRXLESUXXFAIP-UHFFFAOYSA-N
"3,6-dimethyl-7-sulfo-benzothiazolium betaine; 3,6-Dimethyl-7-sulfo-benzothiazolium-betain",CC1=CC=C2C(SC=[N+]2C)=C1S([O-])(=O)=O,243.307,,880,0,Article; Rassow; Reim; Journal fuer Praktische Chemie (Leipzig); vol. <2> 93; (1916); p. 238;,H2O,100 g solvent dissolves. 0.088 g Substance.,SUNPYPHPBATFRC-UHFFFAOYSA-N
"2,6-diisopropyl-heptanedioic acid; 2,6-Diisopropyl-heptandisaeure",CC(C)C(CCCC(C(C)C)C(O)=O)C(O)=O,244.331,,960,13.5,Article; Perkin; Prentice; Journal of the Chemical Society; vol. 59; (1891); p. 840;,H2O,0.096 part(s) of substance.dissolves in:100 parts of solvent.,MHRRIUQKZSPYPD-UHFFFAOYSA-N
"2,6-dipropyl-heptanedioic acid; 2,6-Dipropyl-heptandisaeure",CCCC(CCCC(CCC)C(O)=O)C(O)=O,244.331,,490,13.5,Article; Perkin; Prentice; Journal of the Chemical Society; vol. 59; (1891); p. 837;,H2O,0.049 part(s) of substance.dissolves in:100 parts of solvent.,FLXKADSKJIBUHO-UHFFFAOYSA-N
(furan-2-carbonylamino)-phenyl-acetic acid; (Furan-2-carbonylamino)-phenyl-essigsaeure,OC(=O)C(NC(=O)C1=CC=CO1)C1=CC=CC=C1,245.235,5657-20-5,1402.52,17,Article; Baum; Chemische Berichte; vol. 37; (1904); p. 2955;,H2O,1 part(s) of substance.dissolves in:713 parts of solvent.,BAIPGCMVKIAUJL-UHFFFAOYSA-N
"4-hydroxy-benzoic acid-(beta,beta'-dichloro-isopropyl ester); 4-Hydroxy-benzoesaeure-(beta,beta'-dichlor-isopropylester)",OC1=CC=C(C=C1)C(=O)OC(CCl)CCl,249.094,,700,18,"Article; Sabalitschka; Archiv der Pharmazie (Weinheim, Germany); vol. 269; (1931); p. 228,244;",H2O,Solubility :0.07 percent.,WNPOECWBNOQAAJ-UHFFFAOYSA-N
"(1,3-dimethyl-2,6-dioxo-1,2,3,6-tetrahydro-purin-7-yl)-acetic acid methylamide; (1,3-Dimethyl-2,6-dioxo-1,2,3,6-tetrahydro-purin-7-yl)-essigsaeure-methylamid",CNC(=O)CN1C=NC2=C1C(=O)N(C)C(=O)N2C,251.245,,22600,20,"Article; Masi; Ricerca Scientifica; vol. 22; (1952); p. 1596,1599;",H2O,Solubility :2.26 percent.,FTFOPGZFHHNAAR-UHFFFAOYSA-N
7-dimethylamino-naphthalene-1-sulfonic acid; N.N-Dimethyl-naphthylamin-(2)-sulfonsaeure-(8); 7-Dimethylamino-naphthalin-1-sulfonsaeure,CN(C)C1=CC=C2C=CC=C(C2=C1)S(O)(=O)=O,251.306,110845-65-3,34700,25,Article; Veley; Journal of the Chemical Society; vol. 91; (1907); p. 155;,H2O,100 g solvent dissolves. 3.47 g Substance.,VQRCWHLTSACCEY-UHFFFAOYSA-N
"3-(3,7-dimethyl-2,6-dioxo-2,3,6,7-tetrahydro-purin-1-yl)-propionic acid; 3-(3,7-Dimethyl-2,6-dioxo-2,3,6,7-tetrahydro-purin-1-yl)-propionsaeure",CN1C=NC2=C1C(=O)N(CCC(O)=O)C(=O)N2C,252.23,5815-65-6,33333.33,15,Patent; Poulenc Freres; Behal; DE431511; Fortschr. Teerfarbenfabr. Verw. Industriezweige; vol. 15; p. 1641;,H2O,1 part(s) of substance.dissolves in:ca.30 parts of solvent.,SCWZFIOJEFQBMD-UHFFFAOYSA-N
3-(3-amino-benzoylamino)-benzoic acid amide; 3-(3-Amino-benzoylamino)-benzoesaeure-amid; 3-(3-Amino-benzamino)-benzamid,NC(=O)C1=CC(NC(=O)C2=CC(N)=CC=C2)=CC=C1,255.276,81882-67-9,360.1,12,Article; Schulze; Justus Liebigs Annalen der Chemie; vol. 251; (1889); p. 169;,H2O,1 part(s) of substance.dissolves in:2777 parts of solvent.,LJQDENZRNPWESK-UHFFFAOYSA-N
"4-isopentyl-1,5-dimethyl-2-phenyl-1,2-dihydro-pyrazol-3-one; 4-Isopentyl-1,5-dimethyl-2-phenyl-1,2-dihydro-pyrazol-3-on",CC(C)CCC1=C(C)N(C)N(C1=O)C1=CC=CC=C1,258.363,,4100,25,"Article; Giacalone; Di Maggio; Gazzetta Chimica Italiana; vol. 69; (1939); p. 122,125;",H2O,Solubility :0.41 percent.,YIEJGJDYRBIXMQ-UHFFFAOYSA-N
"2,3-dihydroxytetradecanoic acid; 2,3-dihydroxy-tetradecanoic acid; 2,3-Dihydroxy-tetradecansaeure; 2.3-Dihydroxy-myristinsaeure",CCCCCCCCCCCC(O)C(O)C(O)=O,260.374,149021-94-3,60,20,"Article; Breusch; Tulus; Istanbul Universitesi Fen Fakultesi Mecmuasi, Seri A: Matematik-Fizik-Kimya; vol. 12; (1947); p. 291; Chem.Abstr.; (1948); p. 6751;",H2O,Solubility :0.006 percent.,XKUVYIQKNPUANK-UHFFFAOYSA-N
(+/-)-threo-3-methoxy-2-(N'-phenyl-ureido)-valeric acid; (+/-)-threo-3-Methoxy-2-(N'-phenyl-ureido)-valeriansaeure,[H][C@@](CC)(OC)[C@@]([H])(NC(=O)NC1=CC=CC=C1)C(O)=O,266.297,,1530,0,"Article; Izumiya; Nippon Kagaku Zasshi; vol. 72; (1951); p. 784,785; Chem.Abstr.; (1953); p. 1599;",H2O,Solubility :0.153 percent.,PXVDAYCPBNGHHY-WDEREUQCSA-N
(+/-)-erythro-3-methoxy-2-(N'-phenyl-ureido)-valeric acid; (+/-)-erythro-3-Methoxy-2-(N'-phenyl-ureido)-valeriansaeure,[H][C@](CC)(OC)[C@@]([H])(NC(=O)NC1=CC=CC=C1)C(O)=O,266.297,,660,0,"Article; Izumiya; Nippon Kagaku Zasshi; vol. 72; (1951); p. 784,785; Chem.Abstr.; (1953); p. 1599;",H2O,Solubility :0.066 percent.,PXVDAYCPBNGHHY-GHMZBOCLSA-N