Name,SMILES,Molar Mass,CAS Number,Experimental Solubility in Water (mg/L),Temperature (deg C),Experiment Reference,,comment,Standard InChIKey
bis-(2-carboxy-phenyl)-acetic acid; Diphenylmethan-2.2'.alpha-tricarbonsaeure; 2.2'-Dicarboxy-diphenylessigsaeure; Bis-(2-carboxy-phenyl)-essigsaeure,OC(=O)C(C1=C(C=CC=C1)C(O)=O)C1=C(C=CC=C1)C(O)=O,300.268,22589-07-7,950,25,Article; Graebe; Juillard; Justus Liebigs Annalen der Chemie; vol. 242; (1887); p. 222;,H2O,0.095 part(s) of substance.dissolves in:100 parts of solvent.,AOTLXSIYOKZSAI-UHFFFAOYSA-N
"2-(2,2-bis-ethoxycarbonyl-ethyl)-benzoic acid; 2-(2,2-Bis-aethoxycarbonyl-aethyl)-benzoesaeure; 2-Carboxy-benzylmalonsaeure-diaethylester",CCOC(=O)C(CC1=C(C=CC=C1)C(O)=O)C(=O)OCC,294.304,14746-25-9,448.43,17,Article; Wislicenus; Justus Liebigs Annalen der Chemie; vol. 242; (1887); p. 46;,H2O,1 part(s) of substance.dissolves in:2230 parts of solvent.,ZTPGRZLRJVEVLX-UHFFFAOYSA-N
"9,10-dioxo-9,10-dihydro-anthracene-1,5-disulfonic acid dianilide; 9,10-Dioxo-9,10-dihydro-anthracen-1,5-disulfonsaeure-dianilid; Anthrachinon-disulfonsaeure-(1.5)-dianilid",O=C1C2=CC=CC(=C2C(=O)C2=C1C(=CC=C2)S(=O)(=O)NC1=CC=CC=C1)S(=O)(=O)NC1=CC=CC=C1,518.571,,4000,18,"Article; Fierz-David,H.E.; Helvetica Chimica Acta; vol. 10; (1927); p. 199; Journal fuer Praktische Chemie (Leipzig); vol. <2>131; (1931); p. 374;",H2O,1 part(s) of substance.dissolves in:250 parts of solvent.,TXMPLDGCJRXQHF-UHFFFAOYSA-N
"9,10-dioxo-9,10-dihydro-anthracene-1,8-disulfonic acid dianilide; 9,10-Dioxo-9,10-dihydro-anthracen-1,8-disulfonsaeure-dianilid; Anthrachinon-disulfonsaeure-(1.8)-dianilid",O=C1C2=CC=CC(=C2C(=O)C2=C1C=CC=C2S(=O)(=O)NC1=CC=CC=C1)S(=O)(=O)NC1=CC=CC=C1,518.571,,23809.52,18,"Article; Fierz-David,H.E.; Helvetica Chimica Acta; vol. 10; (1927); p. 199; Journal fuer Praktische Chemie (Leipzig); vol. <2>131; (1931); p. 374;",H2O,1 part(s) of substance.dissolves in:42 parts of solvent.,RNBCTEHVFYBFDB-UHFFFAOYSA-N
3-(4-nitro-toluene-2-sulfonylamino)-valeric acid; 3-(4-Nitro-toluol-2-sulfonylamino)-valeriansaeure,CCC(CC(O)=O)NS(=O)(=O)C1=C(C)C=CC(=C1)N(=O)=O,316.335,,146,25,Article; Anziegin; Gulewitsch; Hoppe-Seyler's Zeitschrift fuer Physiologische Chemie; vol. 158; (1926); p. 38;,H2O,100 g solvent dissolves. 0.0146 g Substance.,SNELQFNMXNSQIU-UHFFFAOYSA-N
3-(N'-[1]naphthyl-ureido)-valeric acid; beta-[omega-(alpha-Naphthyl)-ureido]-n-valeriansaeure; 3-(N'-[1]Naphthyl-ureido)-valeriansaeure,CCC(CC(O)=O)NC(=O)NC1=CC=CC2=CC=CC=C12,286.331,,170,25,Article; Anziegin; Gulewitsch; Hoppe-Seyler's Zeitschrift fuer Physiologische Chemie; vol. 158; (1926); p. 38;,H2O,100 g solvent dissolves. 0.016-.018 g Substance.,SKNWDKOBKFQQMG-UHFFFAOYSA-N
1-[(4-nitro-benzenesulfonylcarbamoyl)-methyl]-pyridinium betaine; 1-[(4-Nitro-benzolsulfonylcarbamoyl)-methyl]-pyridinium-betain,O=C(C[N+]1=CC=CC=C1)[N-]S(=O)(=O)C1=CC=C(C=C1)N(=O)=O,321.313,111977-83-4,250,20,"Article; Kloetzer; Monatshefte fuer Chemie; vol. 87; (1956); p. 313,316;",H2O,100 g solvent dissolves. 0.025 g Substance.,PQBLUUFRWIZKDT-UHFFFAOYSA-N
1-(sulfanilylcarbamoyl-methyl)-pyridinium betaine; 1-(Sulfanilylcarbamoyl-methyl)-pyridinium-betain,NC1=CC=C(C=C1)S(=O)(=O)[N-]C(=O)C[N+]1=CC=CC=C1,291.331,109016-82-2,10000,20,"Article; Kloetzer; Monatshefte fuer Chemie; vol. 87; (1956); p. 313,316;",H2O,100 g solvent dissolves. 1 g Substance.,WUVPSMGCCXWMMK-UHFFFAOYSA-N
"5,5'-dihydroxy-4,4'-[N',N'''-(2-hydroxy-m-phenylene)-dihydrazino]-bis-naphthalene-2,7-disulfonic acid; 5,5'-Dihydroxy-4,4'-[N',N'''-(2-hydroxy-m-phenylen)-dihydrazino]-bis-naphthalin-2,7-disulfonsaeure; 2,6-Bis-[N'-(8-hydroxy-3,6-disulfo-[1]naphthyl)-hydrazino]-phenol",OC1=C2C(NNC3=CC=CC(NNC4=CC(=CC5=CC(=CC(O)=C45)S(O)(=O)=O)S(O)(=O)=O)=C3O)=CC(=CC2=CC(=C1)S(O)(=O)=O)S(O)(=O)=O,758.742,,38000,20,"Article; Maslennikow; Zhurnal Prikladnoi Khimii (Sankt-Peterburg, Russian Federation); vol. 31; (1958); p. 1277,1278; engl. Ausg. S. 1265, 1266;",H2O,100 g solvent dissolves. 3.8 g Substance.,BJVOGQFBDXBHKC-UHFFFAOYSA-N
"2,3'-benzoylimino-di-propionic acid; 2,3'-Benzoylimino-di-propionsaeure",CC(N(CCC(O)=O)C(=O)C1=CC=CC=C1)C(O)=O,265.266,,72000,20,Article; McKinney et al.; Journal of the American Chemical Society; vol. 74; (1952); p. 5183;,H2O,100 g solvent dissolves. 7.2 g Substance.,FXXDPMMUSACTPR-UHFFFAOYSA-N
"nona-N-methyl-4,4',4''-ethoxymethanetriyl-tri-anilinium; (4.4'.4''-Tris-dimethylamino-triphenylcarbinol-aethylaether)-tris-jodmethylat; Nona-N-methyl-4,4',4''-aethoxymethantriyl-tri-anilinium",CCOC(C1=CC=C(C=C1)[N+](C)(C)C)(C1=CC=C(C=C1)[N+](C)(C)C)C1=CC=C(C=C1)[N+](C)(C)C,462.699,,305000,18,Article; Rosenstiehl; Bulletin de la Societe Chimique de France; vol. <3>13; (1895); p. 557 Anm.;,H2O,30.5 part(s) of substance.dissolves in:100 parts of solvent.,CBCBCQCKFDASTN-UHFFFAOYSA-N
"nona-N-methyl-4,4',4''-isopentyloxymethanetriyl-tri-anilinium; (4.4'.4''-Tris-dimethylamino-triphenylcarbinol-isoamylaether)-tris-jodmethylat; Nona-N-methyl-4,4',4''-isopentyloxymethantriyl-tri-anilinium",CC(C)CCOC(C1=CC=C(C=C1)[N+](C)(C)C)(C1=CC=C(C=C1)[N+](C)(C)C)C1=CC=C(C=C1)[N+](C)(C)C,504.779,,480000,18,Article; Rosenstiehl; Bulletin de la Societe Chimique de France; vol. <3>13; (1895); p. 557 Anm.;,H2O,48 part(s) of substance.dissolves in:100 parts of solvent.,LRUWILCXCMTKFV-UHFFFAOYSA-N
"1,1,1-trichloro-2,2-bis-sulfanilylamino-ethane; 1,1,1-Trichlor-2,2-bis-sulfanilylamino-aethan",NC1=CC=C(C=C1)S(=O)(=O)NC(NS(=O)(=O)C1=CC=C(N)C=C1)C(Cl)(Cl)Cl,473.788,409314-55-2,260,20,"Article; Rodighiero; Gazzetta Chimica Italiana; vol. 81; (1951); p. 80,87;",H2O,Solubility :0.026 percent.,VNIGDIUGLRXRBJ-UHFFFAOYSA-N
trimethyl-(sulfanilylcarbamoyl-methyl)-ammonium betaine; Trimethyl-(sulfanilylcarbamoyl-methyl)-ammonium-betain,C[N+](C)(C)CC(=O)[N-]S(=O)(=O)C1=CC=C(N)C=C1,271.34,117875-84-0,150000,20,"Article; Kloetzer; Monatshefte fuer Chemie; vol. 87; (1956); p. 313,316;",H2O,Solubility :15 percent.,YWDFYXLQEPPLKH-UHFFFAOYSA-N
monosulphomethylmelamine,NC1=NC(NCS(O)(=O)=O)=NC(N)=N1,220.212,92613-09-7,600,20,"Article; Kunka, I.; Wirpsza, Z.; Tetrahedron; vol. 40; 10; (1984); p. 1855 - 1856;",H2O,Solubilty: 0.06 p(g/100g solution),VKQVCJBSXUXNRY-UHFFFAOYSA-N
"(-)-2,4-diisopropyl-3-thia-glutaric acid; (-)-2,4-Diisopropyl-3-thia-glutarsaeure",CC(C)C(SC(C(C)C)C(O)=O)C(O)=O,234.317,20664-40-8; 20756-87-0,10400,25,Article; Ahlberg; Journal fuer Praktische Chemie (Leipzig); vol. <2> 107; (1924); p. 291; Chemische Berichte; vol. 61; (1928); p. 817;,H2O,Solubility :1.04 percent.,OUHPYBUUDXRJCY-UHFFFAOYSA-N
"2-Hexyldimethylammonio-aethan-sulfonsaeure-(1)-betain, Decyldimethyltaurinbetain",CCCCCC[N+](C)(C)CCS([O-])(=O)=O,237.364,94982-19-1,655000,30,"Article; Barnhurst,J.D.; Journal of Organic Chemistry; vol. 26; (1961); p. 4520 - 4522;",H2O,Solubility: 65.5 p(g/100g solution),ZBGPUFHYHDEUHE-UHFFFAOYSA-N
"2-Decyldimethylammonio-aethan-sulfonsaeure-(1)-betain, Decyldimethyltaurinbetain",CCCCCCCCCC[N+](C)(C)CCS([O-])(=O)=O,293.471,97260-62-3,2200,30,"Article; Barnhurst,J.D.; Journal of Organic Chemistry; vol. 26; (1961); p. 4520 - 4522;",H2O,Solubility: 0.22 p(g/100g solution),MUYVRNZDHUEQMS-UHFFFAOYSA-N
kartolin,CC(C)OC(=O)NCCOC(=O)NC1=CC=C(Cl)C=C1,300.742,,0.38,20,"Article; Vlasov, O. N.; Sukhova, S. I.; Abbakumova, N. V.; Russian Journal of Physical Chemistry; vol. 67; 1; (1993); p. 171 - 172; Zhurnal Fizicheskoi Khimii; vol. 67; 1; (1993); p. 189 - 190;",H2O,Solubility: 1.25E-4 mol-percent,OYGKZISHHKFFGI-UHFFFAOYSA-N
"4.4'.4''-tris-dimethylamino-triphenylcarbinol-methyl ether tris hydroxymethylate; 4.4'.4''-Tris-dimethylamino-triphenylcarbinol-methylaether-tris-hydroxymethylat; (4.4'.4''-Tris-dimethylamino-triphenylcarbinol-methylaether)-tris-jodmethylat; Nona-N-methyl-4,4',4''-methoxymethantriyl-tri-anilinium",COC(C1=CC=C(C=C1)[N+](C)(C)C)(C1=CC=C(C=C1)[N+](C)(C)C)C1=CC=C(C=C1)[N+](C)(C)C,448.672,,242200,18,Article; Rosenstiehl; Bulletin de la Societe Chimique de France; vol. <3>13; (1895); p. 557 Anm.;,H2O,24.22 part(s) of substance.dissolves in:100 parts of solvent.,REZHQQYWNYWRCQ-UHFFFAOYSA-N
,CC(C)(O)CO[C@@H]1[C@@H](O)[C@@H]2O[C@H]3O[C@H](CO)[C@@H](O[C@H]4O[C@H](CO)[C@@H](O[C@H]5O[C@H](CO)[C@@H](O[C@H]6O[C@H](CO)[C@@H](O[C@H]7O[C@H](CO)[C@@H](O[C@H]8O[C@H](CO)[C@@H](O[C@H]1O[C@@H]2CO)[C@H](O)[C@H]8O)[C@H](O)[C@H]7O)[C@H](O)[C@H]6O)[C@H](O)[C@H]5O)[C@H](O)[C@H]4O)[C@H](O)[C@H]3O,1207.1,,2900,22,"Article; Lindberg, Bengt; Lindberg, Johan; Pitha, Josef; Rao, C. Trinadha; Harata, Kazuaki; Carbohydrate Research; vol. 222; (1991); p. 113 - 120;",H2O,Solubilty: 0.29 weight-percent,FHQWIIWQCBLVTM-FPPUMMFJSA-N
,OC[C@@H](O)CO[C@@H]1[C@@H](O)[C@@H]2O[C@H]3O[C@H](CO)[C@@H](O[C@H]4O[C@H](CO)[C@@H](O[C@H]5O[C@H](CO)[C@@H](O[C@H]6O[C@H](CO)[C@@H](O[C@H]7O[C@H](CO)[C@@H](O[C@H]8O[C@H](CO)[C@@H](O[C@H]1O[C@@H]2CO)[C@H](O)[C@H]8O)[C@H](O)[C@H]7O)[C@H](O)[C@H]6O)[C@H](O)[C@H]5O)[C@H](O)[C@H]4O)[C@H](O)[C@H]3O,1209.08,139593-49-0; 139683-65-1,15400,22,"Article; Lindberg, Bengt; Lindberg, Johan; Pitha, Josef; Rao, C. Trinadha; Harata, Kazuaki; Carbohydrate Research; vol. 222; (1991); p. 113 - 120;",H2O,Solubilty: 1.54 weight-percent,DDUNQGXUZLQMHA-JESBNOQJSA-N
,OC[C@H](O)CO[C@@H]1[C@@H](O)[C@@H]2O[C@H]3O[C@H](CO)[C@@H](O[C@H]4O[C@H](CO)[C@@H](O[C@H]5O[C@H](CO)[C@@H](O[C@H]6O[C@H](CO)[C@@H](O[C@H]7O[C@H](CO)[C@@H](O[C@H]8O[C@H](CO)[C@@H](O[C@H]1O[C@@H]2CO)[C@H](O)[C@H]8O)[C@H](O)[C@H]7O)[C@H](O)[C@H]6O)[C@H](O)[C@H]5O)[C@H](O)[C@H]4O)[C@H](O)[C@H]3O,1209.08,139593-49-0; 139683-65-1,11900,22,"Article; Lindberg, Bengt; Lindberg, Johan; Pitha, Josef; Rao, C. Trinadha; Harata, Kazuaki; Carbohydrate Research; vol. 222; (1991); p. 113 - 120;",H2O,Solubilty: 1.19 weight-percent,DDUNQGXUZLQMHA-JUFQYABCSA-N
Russupteridin-gelb I,[H][C@@](O)(CO)[C@@]([H])(O)[C@@]([H])(O)CN1C(=N\C=O)\C(N)=NC2=C1NC(=O)NC2=O,356.295,,5000,20,"Article; Iten, Peter Xaver von; Maerki-Danzig, Hana; Koch, Herbert; Eugster, Conrad Hans; Helvetica Chimica Acta; vol. 67; 63; (1984); p. 550 - 569;",H2O,Solubility: 0.5 weight-percent,FXZNMYYZFXEFJF-LUYTYUCQSA-N
"5-hydroxy-1,5-dimethylhexylisothiocyanate",CC(CCCC(C)(C)O)N=C=S,187.306,194154-06-8,1800,25,"Article; Tajima; Kimoto; Taketo; Taketo; Bioscience, biotechnology, and biochemistry; vol. 62; 3; (1998); p. 491 - 495;",H2O,Solubility: 0.18 weight-percent,VZLLFLRJDJWOEM-UHFFFAOYSA-N
,CCCCCCCCCSCCOCCO,248.43,122295-21-0,36.02,25,"Article; Sokolowski, Adam; Journal of Physical Chemistry; vol. 93; 25; (1989); p. 8223 - 8226;",H2O,Solubility: 0.000145 mol/kg,AMGNSAFASRPNDZ-UHFFFAOYSA-N
,CCCCCCCCCSCCOCCOCCO,292.483,122295-24-3,57.03,25,"Article; Sokolowski, Adam; Journal of Physical Chemistry; vol. 93; 25; (1989); p. 8223 - 8226;",H2O,Solubility: 0.000195 mol/kg,AZFHBRWQLOAJGP-UHFFFAOYSA-N
,CCCCCCCSCCOCCO,220.376,122295-20-9,440.75,25,"Article; Sokolowski, Adam; Journal of Physical Chemistry; vol. 93; 25; (1989); p. 8223 - 8226;",H2O,Solubility: 0.0020 mol/kg,JXNBRFNPLJDFCV-UHFFFAOYSA-N
,CCCCCCCSCCOCCOCCO,264.43,122295-23-2,687.52,25,"Article; Sokolowski, Adam; Journal of Physical Chemistry; vol. 93; 25; (1989); p. 8223 - 8226;",H2O,Solubility: 0.0026 mol/kg,VGUGZDXMCFKWEE-UHFFFAOYSA-N
,CCCCCCSCCOCCOCCO,250.403,87385-54-4,2278.67,25,"Article; Sokolowski, Adam; Journal of Physical Chemistry; vol. 93; 25; (1989); p. 8223 - 8226;",H2O,Solubility: 0.0091 mol/kg,WRKMHGBLFGTHHZ-UHFFFAOYSA-N
,CCCCCSCCOCCO,192.323,122295-19-6,5769.69,25,"Article; Sokolowski, Adam; Journal of Physical Chemistry; vol. 93; 25; (1989); p. 8223 - 8226;",H2O,Solubility: 0.030 mol/kg,BRGZDRXMTRQPNB-UHFFFAOYSA-N
,CCCCCSCCOCCOCCO,236.376,122295-22-1,7800.41,25,"Article; Sokolowski, Adam; Journal of Physical Chemistry; vol. 93; 25; (1989); p. 8223 - 8226;",H2O,Solubility: 0.033 mol/kg,KTHOVJVKKUQPIE-UHFFFAOYSA-N
mono-2-O-propyl-beta-cyclodextrin,CCCO[C@@H]1[C@@H](O)[C@@H]2O[C@H]3O[C@H](CO)[C@@H](O[C@H]4O[C@H](CO)[C@@H](O[C@H]5O[C@H](CO)[C@@H](O[C@H]6O[C@H](CO)[C@@H](O[C@H]7O[C@H](CO)[C@@H](O[C@H]8O[C@H](CO)[C@@H](O[C@H]1O[C@@H]2CO)[C@H](O)[C@H]8O)[C@H](O)[C@H]7O)[C@H](O)[C@H]6O)[C@H](O)[C@H]5O)[C@H](O)[C@H]4O)[C@H](O)[C@H]3O,1177.08,,6700,24,Article; Jindrich; Pitha; Lindberg; Seffers; Harata; Carbohydrate Research; vol. 266; 1; (1995); p. 75 - 80;,H2O,Solubility: 0.67 weight-percent,XOINLBBURLRSFR-FPPUMMFJSA-N
mono-2-O-ethyl-beta-cyclodextrin,CCO[C@@H]1[C@@H](O)[C@@H]2O[C@H]3O[C@H](CO)[C@@H](O[C@H]4O[C@H](CO)[C@@H](O[C@H]5O[C@H](CO)[C@@H](O[C@H]6O[C@H](CO)[C@@H](O[C@H]7O[C@H](CO)[C@@H](O[C@H]8O[C@H](CO)[C@@H](O[C@H]1O[C@@H]2CO)[C@H](O)[C@H]8O)[C@H](O)[C@H]7O)[C@H](O)[C@H]6O)[C@H](O)[C@H]5O)[C@H](O)[C@H]4O)[C@H](O)[C@H]3O,1163.05,,5300,24,Article; Jindrich; Pitha; Lindberg; Seffers; Harata; Carbohydrate Research; vol. 266; 1; (1995); p. 75 - 80;,H2O,Solubility: 0.53 weight-percent,FVRFOYJRVRJJJG-LRCRDJQPSA-N
(R)-N-benzyl-2-hydroxy-succinamic acid; (R)-N-Benzyl-2-hydroxy-succinamidsaeure,O[C@H](CC(=O)NCC1=CC=CC=C1)C(O)=O,223.229,141650-65-9,13600,18,Article; Lutz; Chemische Berichte; vol. 37; (1904); p. 2125; Chemisches Zentralblatt; vol. 71; II; (1900); p. 1011;,H2O,1.36 part(s) of substance.dissolves in:100 parts of solvent.,AWENCJBDNVGPNN-SECBINFHSA-N
2-(Perfluorooctyl)ethanesulfinic acid,OS(=O)CCC(F)(F)C(F)(F)C(F)(F)C(F)(F)C(F)(F)C(F)(F)C(F)(F)C(F)(F)F,512.187,,4000,25,"Article; Brace, Neal O.; Journal of Fluorine Chemistry; vol. 102; 1-2; (2000); p. 21 - 41;",H2O,Solubility: 0.4 weight-percent,VWAMJUIXCVJKHI-UHFFFAOYSA-N
,NS(=O)(=O)C1=CC(=C(N(CCO)CCO)C(=C1)N(=O)=O)N(=O)=O,350.309,,2500,24,"Article; Benbow, John W.; Bernberg, Erin L.; Korda, Anna; Mead, Jan R.; Antimicrobial Agents and Chemotherapy; vol. 42; 2; (1998); p. 339 - 343;",H2O,Solubility: 0.25 weight-percent,MRSNIJUIXJNQKD-UHFFFAOYSA-N
,CCC(CC)NC1=C(C=C(C=C1N(=O)=O)S(N)(=O)=O)N(=O)=O,332.337,,18,24,"Article; Benbow, John W.; Bernberg, Erin L.; Korda, Anna; Mead, Jan R.; Antimicrobial Agents and Chemotherapy; vol. 42; 2; (1998); p. 339 - 343;",H2O,Solubility: 0.0018 weight-percent,ICBMPAHYJUDUDE-UHFFFAOYSA-N
,NS(=O)(=O)C1=CC(=C(NC2=CC=CC=C2)C(=C1)N(=O)=O)N(=O)=O,338.301,,4,24,"Article; Benbow, John W.; Bernberg, Erin L.; Korda, Anna; Mead, Jan R.; Antimicrobial Agents and Chemotherapy; vol. 42; 2; (1998); p. 339 - 343;",H2O,Solubility: 0.0004 weight-percent,KKXDWPLXJAIDRM-UHFFFAOYSA-N
,OC(=O)COC1=CC=C(C=C1)\C=C\C1=CC(O)=CC(O)=C1,286.284,1043627-73-1,809.1,21.84,"Article; Jiang, Yu Lin; Bioorganic and Medicinal Chemistry; vol. 16; 12; (2008); p. 6406 - 6414;",H2O,Solubility: 0.08091 p(g/100g solution),INVXNRJFCIBXGV-OWOJBTEDSA-N
,CCOC(=O)COC1=CC=C(\C=C\C2=CC(O)=CC(O)=C2)C=C1,314.338,1043627-68-4,1903,21.84,"Article; Jiang, Yu Lin; Bioorganic and Medicinal Chemistry; vol. 16; 12; (2008); p. 6406 - 6414;",H2O,Solubility: 0.00193 p(g/100g solution),WJQIKFVQRWHHKV-ONEGZZNKSA-N
,OC(=O)CCCCCOC1=CC=C(\C=C\C2=CC(O)=CC(O)=C2)C=C1,342.392,1043627-76-4,45.2,21.84,"Article; Jiang, Yu Lin; Bioorganic and Medicinal Chemistry; vol. 16; 12; (2008); p. 6406 - 6414;",H2O,Solubility: 0.00452 p(g/100g solution),SPYSFHZNMKLDCK-AATRIKPKSA-N
,COC(=O)CCCCCOC1=CC=C(\C=C\C2=CC(O)=CC(O)=C2)C=C1,356.419,1043627-71-9,0.32,21.84,"Article; Jiang, Yu Lin; Bioorganic and Medicinal Chemistry; vol. 16; 12; (2008); p. 6406 - 6414;",H2O,Solubility: 0.000032 p(g/100g solution),RIUVVQHRQBXJAX-VOTSOKGWSA-N
,CC(C)(CO)C(=O)NC1=CC=C2C=CN(CC3=CC=CC(=N3)C3=C4OCOC4=CC=C3)C2=C1,443.502,1246241-79-1,3.2,21,"Article; Letourneau, Jeffrey J.; Jokiel, Patrick; Olson, John; Riviello, Christopher M.; Ho, Koc-Kan; McAleer, Lihong; Yang, Jingchun; Swanson, Robert N.; Baker, James; Cowley, Phillip; Edwards, Darren; Ward, Nick; Ohlmeyer, Michael H.J.; Webb, Maria L.; Bioorganic and Medicinal Chemistry Letters; vol. 20; 18; (2010); p. 5449 - 5453;",water,Solubility: 3.2 mug/ml,IJGUVPKVGNLXIQ-UHFFFAOYSA-N
,CC(C)(O)CC(=O)NC1=CC=C2C=CN(CC3=CC=CC(=N3)C3=C4OCOC4=CC=C3)C2=C1,443.502,1246241-81-5,1,21,"Article; Letourneau, Jeffrey J.; Jokiel, Patrick; Olson, John; Riviello, Christopher M.; Ho, Koc-Kan; McAleer, Lihong; Yang, Jingchun; Swanson, Robert N.; Baker, James; Cowley, Phillip; Edwards, Darren; Ward, Nick; Ohlmeyer, Michael H.J.; Webb, Maria L.; Bioorganic and Medicinal Chemistry Letters; vol. 20; 18; (2010); p. 5449 - 5453;",water,Solubility: <1 mug/ml,QARUVMOUXQJRHQ-UHFFFAOYSA-N
,COC1=C(C=CC(F)=C1)C1=NC(CN2C=CC3=CC=C(NC(=O)C(C)(C)CO)C=C23)=CC=C1,447.509,1246241-80-4,11.7,21,"Article; Letourneau, Jeffrey J.; Jokiel, Patrick; Olson, John; Riviello, Christopher M.; Ho, Koc-Kan; McAleer, Lihong; Yang, Jingchun; Swanson, Robert N.; Baker, James; Cowley, Phillip; Edwards, Darren; Ward, Nick; Ohlmeyer, Michael H.J.; Webb, Maria L.; Bioorganic and Medicinal Chemistry Letters; vol. 20; 18; (2010); p. 5449 - 5453;",water,Solubility: 11.7 mug/ml,KVEBRGSWEKDCPX-UHFFFAOYSA-N
,COC1=C(C=CC(F)=C1)C1=NC(CN2C=CC3=CC=C(NC(=O)CC(C)(C)O)C=C23)=CC=C1,447.509,1246241-82-6,17.9,21,"Article; Letourneau, Jeffrey J.; Jokiel, Patrick; Olson, John; Riviello, Christopher M.; Ho, Koc-Kan; McAleer, Lihong; Yang, Jingchun; Swanson, Robert N.; Baker, James; Cowley, Phillip; Edwards, Darren; Ward, Nick; Ohlmeyer, Michael H.J.; Webb, Maria L.; Bioorganic and Medicinal Chemistry Letters; vol. 20; 18; (2010); p. 5449 - 5453;",water,Solubility: 17.9 mug/ml,KJVMIKLNUFIUIG-UHFFFAOYSA-N
,CN1C=C(CC2=CC=CC(=N2)C2=C3OCOC3=CC=C2)C2=CC(NC(=O)C(C)(C)CO)=CC=C12,457.529,1246241-83-7,1,21,"Article; Letourneau, Jeffrey J.; Jokiel, Patrick; Olson, John; Riviello, Christopher M.; Ho, Koc-Kan; McAleer, Lihong; Yang, Jingchun; Swanson, Robert N.; Baker, James; Cowley, Phillip; Edwards, Darren; Ward, Nick; Ohlmeyer, Michael H.J.; Webb, Maria L.; Bioorganic and Medicinal Chemistry Letters; vol. 20; 18; (2010); p. 5449 - 5453;",water,Solubility: <1 mug/ml,ICCWLTVCIXVGMW-UHFFFAOYSA-N
,CN1C=C(CC2=CC=CC(=N2)C2=C3OCOC3=CC=C2)C2=CC(NC(=O)CC(C)(C)O)=CC=C12,457.529,1246241-85-9,14.9,21,"Article; Letourneau, Jeffrey J.; Jokiel, Patrick; Olson, John; Riviello, Christopher M.; Ho, Koc-Kan; McAleer, Lihong; Yang, Jingchun; Swanson, Robert N.; Baker, James; Cowley, Phillip; Edwards, Darren; Ward, Nick; Ohlmeyer, Michael H.J.; Webb, Maria L.; Bioorganic and Medicinal Chemistry Letters; vol. 20; 18; (2010); p. 5449 - 5453;",water,Solubility: 14.9 mug/ml,VKKPZNVBRKYDRR-UHFFFAOYSA-N
,COC1=C(C=CC(F)=C1)C1=NC(CC2=CN(C)C3=CC=C(NC(=O)C(C)(C)CO)C=C23)=CC=C1,461.536,1246241-84-8,2,21,"Article; Letourneau, Jeffrey J.; Jokiel, Patrick; Olson, John; Riviello, Christopher M.; Ho, Koc-Kan; McAleer, Lihong; Yang, Jingchun; Swanson, Robert N.; Baker, James; Cowley, Phillip; Edwards, Darren; Ward, Nick; Ohlmeyer, Michael H.J.; Webb, Maria L.; Bioorganic and Medicinal Chemistry Letters; vol. 20; 18; (2010); p. 5449 - 5453;",water,Solubility: 2.0 mug/ml,IADFNAUQPCDFOU-UHFFFAOYSA-N
,COC1=C(C=CC(F)=C1)C1=NC(CC2=CN(C)C3=CC=C(NC(=O)CC(C)(C)O)C=C23)=CC=C1,461.536,1246241-86-0,10.6,21,"Article; Letourneau, Jeffrey J.; Jokiel, Patrick; Olson, John; Riviello, Christopher M.; Ho, Koc-Kan; McAleer, Lihong; Yang, Jingchun; Swanson, Robert N.; Baker, James; Cowley, Phillip; Edwards, Darren; Ward, Nick; Ohlmeyer, Michael H.J.; Webb, Maria L.; Bioorganic and Medicinal Chemistry Letters; vol. 20; 18; (2010); p. 5449 - 5453;",water,Solubility: 10.6 mug/ml,NJXUPXIMEHIIRV-UHFFFAOYSA-N
,[H][C@@]12O[C@H](CSCO)[C@@]([H])(O[C@@]3([H])O[C@H](CSCCO)[C@@]([H])(O[C@@]4([H])O[C@H](CSCCO)[C@@]([H])(O[C@@]5([H])O[C@H](CSCCO)[C@@]([H])(O[C@@]6([H])O[C@H](CSCCO)[C@@]([H])(O[C@@]7([H])O[C@H](CSCCO)[C@@]([H])(O[C@@]8([H])O[C@H](CSCCO)[C@@]([H])(O[C@@]9([H])O[C@H](CSCCO)[C@@]([H])(O1)[C@H](O)[C@H]9O)[C@H](O)[C@H]8O)[C@H](O)[C@H]7O)[C@H](O)[C@H]6O)[C@H](O)[C@H]5O)[C@H](O)[C@H]4O)[C@H](O)[C@H]3O)[C@H](O)[C@H]2O,1764.07,,3000,25,"Article; Wang, Hai Ming; Wenz, Gerhard; Chemistry - An Asian Journal; vol. 6; 9; (2011); p. 2390 - 2399;",water,Solubility: 0.3 g/100g solvent,VLIXSCXKVRENSL-HGAKHNENSA-N